 
        ______________________________________
       |                                      |
       |           ==================         |
       |                 x T B                |
       |           ==================         |
       |               S. Grimme              |
       |        Universitaet Bonn, MCTC       |
       |         2015-18, Version 5.0         |
       |      Sat Jan 20 11:00:33 CET 2018    |
       |______________________________________|
 
        This code comes without any warranty
        for non-commercial, academia use only.
        Cite GFN-xTB work as:
        S. Grimme, C. Bannwarth, P. Shushkov
        JCTC, 13 (2017) 1989-2009
        for GFN2:
        C. Bannwarth, S. Ehlert, S. Grimme
        to be published.
        sTDA-xTB:
        S. Grimme  &  C. Bannwarth, JCP 145 (2016) 054103
        in the mass-spec context additionally:
        V. Asgeirsson, C.Bauer, S. Grimme, Chem. Sci. 8 (2017) 4879
 
        with help from
        P. Shushkov, G. Brandenburg, S. Dohm, J. Pisarek,
        F. März, M. Checinski, S. Ehrlich, S. Spicher, 
        P. Pracht, E. Caldeweyher, S. Ehlert, and C. Bannwarth.
 
        usage        :
        xtb <coord_file> [options]
        where <coord_file> is a valid file of TM)
        (*coord, Bohr) or xmol (*xyz, Angstroem)
        format.

        options:
        -chrg <int>   : molecular charge
        -uhf  <int>   : # of unpaired electrons(=2*S)
        -nox          : skip second, extended part in sTDA-xTB
        -pop          : do population analysis
                      : (default for -nox)
        -mowr <real>  : cut MO write above (def.3 Eh)
        -molden       : write formatted molden file
        -parx <file>  : read parameters for sTDA-xTB
                        calc (def:~/.param_stda2.xtb)
        -parv <file>  : read parameters for vTB part in
                        sTDA-xTB (def: ~/.param_stda1.xtb)
        -xtemp <real> : el. temp for xTB (def. 0 K)
        -etemp <real> : el. temp for GFN (def. 300 K)
        -fod          : do a xTB calc. of the FOD
                        and write molden.input file 
                        with appropriate occupations
                        for plotting. Def. T=12500 K
 
        -gfn          : use GFN-xTB
        -grad         : GFN-xTB gradient
        -acc <real>   : GFN-xTB accuracy (def. 1.0)
        -opt [level]  : optimize at GFN-xTB
                      : level=crude,vloose,loose,
                      :       tight,vtight
        -hess         : compute Hessian at GFN-xTB
        -ohess        : optimize and compute Hessian
        -omd          : optimize and do MD
        -siman        : conformational search
        -screen       : opt. loop over ensemble
        -gmd          : annealed MD for GMD procedure
        -modef        : vib mode following
        -gbsa [string1] [string2]
                        use GBSA implicit solvent
                        for solvent [string1] and
                        solvation state [string2]=
                        reference, bar1M (default=1M)
        additional GFN/opt/MD/siman options read from
        $XTBHOME/.xtbrc or $set in coordinate file
 
       spin and charge state information can be on:
       <.CHRG> (charge) and <.UHF> (=nalpha-nbeta)
       -uhf and -chrg override the file info.
       useful machine settings:
       setenv MKL_NUM_THREADS <NCORE_ON_YOUR_MACHINE>
       setenv OMP_STACKSIZE 500m
       limit stacksize unlimited
 
       total energies in Eh, gaps/HL energies in eV
       please read REVISION and HOWTO files carefully
 =============================
  # OMP threads =                     1
 =============================
 
 xtbhome directory:/Applications/xtb/
 
 argument                      1 :-gmd
 
 number of atoms            :    73
 number of electrons        :   256
 charge                     :  0
 spin                       : 0.0
 first test random number   :  0.4311
 
 
KAB for pair M(3d)-M(3d) :  1.1000
KAB for pair M(4d)-M(4d) :  1.2000
KAB for pair M(5d)-M(5d) :  1.2000
 -----------------------------------------
  G F N (Geometry, Frequency, Non-covalent)
        parametrization, version                     2
 /Applications/xtb/.param_gfn2.xtb
 -----------------------------------------
      method parameters     
 k(s)        :  1.8500
 k(p)        :  2.2500
 k(d)        :  2.0000
 k(f)        :  0.0000
 alphaj      :  1.0000
 kEN (H0ij)  : -2.3620
 D3 a1       :  0.6900
 D3 a2       :  4.0530
 D3 s8       :  2.0000
 D3atm       :  1.0000
 AESdamp     :  5.5000
 AESrad      :  1.9230
 expscalexp  : -0.2500
 
     -------------------------
     ! NO SOLVENT MODEL USED !
     -------------------------
 
 doing EN charges ...
 sum q :  0.2664535D-14
 point charge moment (au)
     X       Y       Z   
   0.0000  -0.0000  -0.0000  total (Debye):    0.000
 
            Z      q(EN)   CN      Cart. coordinates
     1  C   4.0    0.22    4.34    -5.99082    -3.04159     0.00000
     2  C   4.0    0.22    4.34     3.04159    -5.99082    -0.00000
     3  C   4.0    0.22    4.34     5.99082     3.04159    -0.00000
     4  C   4.0    0.22    4.34    -3.04159     5.99082     0.00000
     5  C   4.0    0.22    4.34    -6.71561    -0.19898     0.00000
     6  C   4.0    0.22    4.34     0.19898    -6.71561     0.00000
     7  C   4.0    0.22    4.34     6.71561     0.19898     0.00000
     8  C   4.0    0.22    4.34    -0.19898     6.71561     0.00000
     9  N   5.0   -0.20    3.27    -5.61851     0.72712    -2.30480
    10  N   5.0   -0.20    3.27    -0.72712    -5.61851    -2.30480
    11  N   5.0   -0.20    3.27     5.61851    -0.72712    -2.30480
    12  N   5.0   -0.20    3.27     0.72712     5.61851     2.30480
    13  N   5.0   -0.20    3.27    -5.61851     0.72712     2.30480
    14  N   5.0   -0.20    3.27    -0.72712    -5.61851     2.30480
    15  N   5.0   -0.20    3.27     5.61851    -0.72712     2.30480
    16  N   5.0   -0.20    3.27     0.72712     5.61851    -2.30480
    17  N   5.0   -0.20    3.27    -4.58434    -3.32930    -2.30488
    18  N   5.0   -0.20    3.27     3.32930    -4.58434    -2.30488
    19  N   5.0   -0.20    3.27     4.58434     3.32930    -2.30488
    20  N   5.0   -0.20    3.27    -3.32930     4.58434     2.30488
    21  N   5.0   -0.20    3.27    -4.58434    -3.32930     2.30488
    22  N   5.0   -0.20    3.27     3.32930    -4.58434     2.30488
    23  N   5.0   -0.20    3.27     4.58434     3.32930     2.30488
    24  N   5.0   -0.20    3.27    -3.32930     4.58434    -2.30488
    25  C   4.0    0.47    3.29    -4.61901    -1.17806    -3.77481
    26  C   4.0    0.47    3.29     1.17806    -4.61901    -3.77481
    27  C   4.0    0.47    3.29     4.61901     1.17806    -3.77481
    28  C   4.0    0.47    3.29    -1.17806     4.61901     3.77481
    29  C   4.0    0.47    3.29    -4.61901    -1.17806     3.77481
    30  C   4.0    0.47    3.29     1.17806    -4.61901     3.77481
    31  C   4.0    0.47    3.29     4.61901     1.17806     3.77481
    32  C   4.0    0.47    3.29    -1.17806     4.61901    -3.77481
    33  O   6.0   -0.36    1.07    -3.98271    -1.01580    -5.93715
    34  O   6.0   -0.36    1.07     1.01580    -3.98271    -5.93715
    35  O   6.0   -0.36    1.07     3.98271     1.01580    -5.93715
    36  O   6.0   -0.36    1.07    -1.01580     3.98271     5.93715
    37  O   6.0   -0.36    1.07    -3.98271    -1.01580     5.93715
    38  O   6.0   -0.36    1.07     1.01580    -3.98271     5.93715
    39  O   6.0   -0.36    1.07     3.98271     1.01580     5.93715
    40  O   6.0   -0.36    1.07    -1.01580     3.98271    -5.93715
    41  C   4.0    0.25    4.15    -5.57808     3.31102    -3.13730
    42  C   4.0    0.25    4.15    -3.31102    -5.57808    -3.13730
    43  C   4.0    0.25    4.15     5.57808    -3.31102    -3.13730
    44  C   4.0    0.25    4.15     3.31102     5.57808     3.13730
    45  C   4.0    0.25    4.15    -5.57808     3.31102     3.13730
    46  C   4.0    0.25    4.15    -3.31102    -5.57808     3.13730
    47  C   4.0    0.25    4.15     5.57808    -3.31102     3.13730
    48  C   4.0    0.25    4.15     3.31102     5.57808    -3.13730
    49  H   1.0   -0.05    1.00    -7.27092     4.31572    -2.49176
    50  H   1.0   -0.05    1.00    -4.31572    -7.27092    -2.49176
    51  H   1.0   -0.05    1.00     7.27092    -4.31572    -2.49176
    52  H   1.0   -0.05    1.00     4.31572     7.27092     2.49176
    53  H   1.0   -0.05    1.00    -7.27092     4.31572     2.49176
    54  H   1.0   -0.05    1.00    -4.31572    -7.27092     2.49176
    55  H   1.0   -0.05    1.00     7.27092    -4.31572     2.49176
    56  H   1.0   -0.05    1.00     4.31572     7.27092    -2.49176
    57  H   1.0   -0.05    1.01    -5.47237     3.24826    -5.21034
    58  H   1.0   -0.05    1.01    -3.24826    -5.47237    -5.21034
    59  H   1.0   -0.05    1.01     5.47237    -3.24826    -5.21034
    60  H   1.0   -0.05    1.01     3.24826     5.47237     5.21034
    61  H   1.0   -0.05    1.01    -5.47237     3.24826     5.21034
    62  H   1.0   -0.05    1.01    -3.24826    -5.47237     5.21034
    63  H   1.0   -0.05    1.01     5.47237    -3.24826     5.21034
    64  H   1.0   -0.05    1.01     3.24826     5.47237    -5.21034
    65  H   1.0   -0.05    1.00    -8.78332     0.12567     0.00000
    66  H   1.0   -0.05    1.00    -0.12567    -8.78332     0.00000
    67  H   1.0   -0.05    1.00     8.78332    -0.12567    -0.00000
    68  H   1.0   -0.05    1.00     0.12567     8.78332    -0.00000
    69  H   1.0   -0.05    1.00    -7.65066    -4.31665     0.00000
    70  H   1.0   -0.05    1.00     4.31665    -7.65066     0.00000
    71  H   1.0   -0.05    1.00     7.65066     4.31665    -0.00000
    72  H   1.0   -0.05    1.00    -4.31665     7.65066    -0.00000
    73  AR  8.0   -0.12    0.23     0.00000    -0.00000    -0.00000
 
  Z AO/shell   Hii/eV     exponent
  1     Sat Jan 20 17:55:17 CET 2018    EN: 2.200 GAM: 0.531  GM3:-0.4370
     1s    -10.248275    1.266496
  6     Sat Jan 20 17:55:17 CET 2018    EN: 2.550 GAM: 0.417  GM3:-0.0654
     2s    -15.292509    2.030071
     2p    -10.408465    1.801676
  7     Sat Jan 20 17:55:17 CET 2018    EN: 3.040 GAM: 0.444  GM3:-0.1301
     2s    -16.687725    2.226550
     2p    -13.175143    1.981921
  8     Sat Jan 20 17:55:17 CET 2018    EN: 3.440 GAM: 0.468  GM3: 0.0937
     2s    -20.924998    2.442614
     2p    -15.243501    2.233841
 18     Sun Jan 21 09:08:08 CET 2018    EN: 3.500 GAM: 0.468  GM3: 0.0014
     3s    -24.196439    2.771788
     3p    -12.574561    2.188642
     3d     -1.094377    2.005636
 no old-style atom pair restraing (fixing) potential
 
 molecular fragmentation (1/2 indicates fragments):
1111111111111111111111111111111111111111111111111111111111111111111111112
# atoms in fragment 1/2:    72     1
 fragment masses (1/2) :      664.56       39.95
CMA distance (Bohr)    :   0.000
constraining FC (au)   :  0.0500
 
             =======================================
             |                                     |
             |        S C C  calculation           |
             |                                     |
             =======================================
 #proc     :                      1
 Ncao      :                    226
 Nao       :                    225
 Nel       :                    256
 T(el)     :   300.0
 intcut    :    25.0
 scfconv   :  0.100E-05
   qconv   :  0.200E-04
 intneglect:  0.100E-07
 broydamp  :      0.400
 Nshell    :                    123
 iter      E             dE          RMSdq      gap      omega  full diag
   1   -152.4912902 -0.152491E+03  0.989E+00    4.81       0.0  T
   2   -152.9868022 -0.495512E+00  0.540E+00    5.34       1.0  T
   3   -152.9471211  0.396811E-01  0.221E+00    4.77       1.0  T
   4   -153.0874731 -0.140352E+00  0.581E-01    5.27       1.0  T
   5   -153.0946422 -0.716913E-02  0.210E-01    5.23       1.0  T
   6   -153.0950742 -0.432033E-03  0.743E-02    5.24       1.0  T
   7   -153.0951424 -0.682048E-04  0.270E-02    5.24       1.0  T
   8   -153.0951546 -0.121764E-04  0.971E-03    5.24       1.2  T
   9   -153.0951571 -0.247759E-05  0.551E-03    5.24       2.1  T
  10   -153.0951577 -0.635792E-06  0.204E-03    5.24       5.7  T
  11   -153.0951578 -0.115094E-06  0.718E-04    5.24      16.3  T
  12   -153.0951579 -0.185444E-07  0.354E-04    5.24      33.1  T
  13   -153.0951579 -0.616191E-08  0.120E-04    5.24      97.4  T
  14   -153.0951579 -0.114309E-08  0.387E-05    5.24     302.3  T
speedup  8.12
cpu  time for SCC    2.38 s
wall time for SCC    0.29 s

          eigenvalues
 #    :         116        117        118        119        120        121        122        123
 occ. :        2.000      2.000      2.000      2.000      2.000      2.000      2.000      2.000
 eps  :       -10.368    -10.354    -10.354    -10.302    -10.279    -10.193    -10.124    -10.107
 #    :         124        125        126        127        128        129        130        131
 occ. :        2.000      2.000      2.000      2.000      2.000      0.000      0.000      0.000
 eps  :       -10.107    -10.083    -10.083    -10.025     -9.927     -4.683     -4.602     -4.466
 #    :         132        133        134        135        136        137        138        139
 occ. :        0.000      0.000      0.000      0.000      0.000      0.000      0.000      0.000
 eps  :        -4.466     -4.414     -4.414     -4.348     -4.192     -1.017     -1.006     -0.928
 
 
 Mulliken/CM5 charges        n(s)   n(p)   n(d)
     1 C   0.06791  0.14929   1.078  2.854  0.000
     2 C   0.06791  0.14929   1.078  2.854  0.000
     3 C   0.06791  0.14929   1.078  2.854  0.000
     4 C   0.06791  0.14929   1.078  2.854  0.000
     5 C   0.06791  0.14930   1.078  2.854  0.000
     6 C   0.06791  0.14930   1.078  2.854  0.000
     7 C   0.06791  0.14930   1.078  2.854  0.000
     8 C   0.06791  0.14930   1.078  2.854  0.000
     9 N  -0.03442 -0.27507   1.125  3.910  0.000
    10 N  -0.03442 -0.27507   1.125  3.910  0.000
    11 N  -0.03442 -0.27507   1.125  3.910  0.000
    12 N  -0.03442 -0.27507   1.125  3.910  0.000
    13 N  -0.03442 -0.27507   1.125  3.910  0.000
    14 N  -0.03442 -0.27507   1.125  3.910  0.000
    15 N  -0.03442 -0.27507   1.125  3.910  0.000
    16 N  -0.03442 -0.27507   1.125  3.910  0.000
    17 N  -0.03442 -0.27507   1.125  3.910  0.000
    18 N  -0.03442 -0.27507   1.125  3.910  0.000
    19 N  -0.03442 -0.27507   1.125  3.910  0.000
    20 N  -0.03442 -0.27507   1.125  3.910  0.000
    21 N  -0.03442 -0.27507   1.125  3.910  0.000
    22 N  -0.03442 -0.27507   1.125  3.910  0.000
    23 N  -0.03442 -0.27507   1.125  3.910  0.000
    24 N  -0.03442 -0.27507   1.125  3.910  0.000
    25 C   0.23406  0.40728   1.052  2.714  0.000
    26 C   0.23406  0.40728   1.052  2.714  0.000
    27 C   0.23406  0.40728   1.052  2.714  0.000
    28 C   0.23406  0.40728   1.052  2.714  0.000
    29 C   0.23406  0.40728   1.052  2.714  0.000
    30 C   0.23406  0.40728   1.052  2.714  0.000
    31 C   0.23406  0.40728   1.052  2.714  0.000
    32 C   0.23406  0.40728   1.052  2.714  0.000
    33 O  -0.39961 -0.44177   1.725  4.674  0.000
    34 O  -0.39961 -0.44177   1.725  4.674  0.000
    35 O  -0.39961 -0.44177   1.725  4.674  0.000
    36 O  -0.39961 -0.44177   1.725  4.674  0.000
    37 O  -0.39961 -0.44177   1.725  4.674  0.000
    38 O  -0.39961 -0.44177   1.725  4.674  0.000
    39 O  -0.39961 -0.44177   1.725  4.674  0.000
    40 O  -0.39961 -0.44177   1.725  4.674  0.000
    41 C   0.03208  0.05836   1.072  2.896  0.000
    42 C   0.03208  0.05836   1.072  2.896  0.000
    43 C   0.03208  0.05836   1.072  2.896  0.000
    44 C   0.03208  0.05836   1.072  2.896  0.000
    45 C   0.03208  0.05836   1.072  2.896  0.000
    46 C   0.03208  0.05836   1.072  2.896  0.000
    47 C   0.03208  0.05836   1.072  2.896  0.000
    48 C   0.03208  0.05836   1.072  2.896  0.000
    49 H   0.03530  0.11166   0.965  0.000  0.000
    50 H   0.03530  0.11166   0.965  0.000  0.000
    51 H   0.03530  0.11166   0.965  0.000  0.000
    52 H   0.03530  0.11166   0.965  0.000  0.000
    53 H   0.03530  0.11166   0.965  0.000  0.000
    54 H   0.03530  0.11166   0.965  0.000  0.000
    55 H   0.03530  0.11166   0.965  0.000  0.000
    56 H   0.03530  0.11166   0.965  0.000  0.000
    57 H   0.07382  0.16231   0.926  0.000  0.000
    58 H   0.07382  0.16231   0.926  0.000  0.000
    59 H   0.07382  0.16231   0.926  0.000  0.000
    60 H   0.07382  0.16231   0.926  0.000  0.000
    61 H   0.07382  0.16231   0.926  0.000  0.000
    62 H   0.07382  0.16231   0.926  0.000  0.000
    63 H   0.07382  0.16231   0.926  0.000  0.000
    64 H   0.07382  0.16231   0.926  0.000  0.000
    65 H   0.02536  0.10317   0.975  0.000  0.000
    66 H   0.02536  0.10317   0.975  0.000  0.000
    67 H   0.02536  0.10317   0.975  0.000  0.000
    68 H   0.02536  0.10317   0.975  0.000  0.000
    69 H   0.02537  0.10318   0.975  0.000  0.000
    70 H   0.02537  0.10318   0.975  0.000  0.000
    71 H   0.02537  0.10318   0.975  0.000  0.000
    72 H   0.02537  0.10318   0.975  0.000  0.000
    73 AR -0.00063 -0.00137   2.000  5.993  0.007
 
 Wiberg/Mayer (AO) data. WBOs > 0.1 written file <wbo>
 largest (>0.05) Wiberg bond orders for each atom
           total WBO             WBO to atom ...
     1  C   3.978    N   21 0.995    N   17 0.995    C    5 0.957    H   69 0.948
     2  C   3.978    N   18 0.995    N   22 0.995    C    6 0.957    H   70 0.948
     3  C   3.978    N   23 0.995    N   19 0.995    C    7 0.957    H   71 0.948
     4  C   3.978    N   20 0.995    N   24 0.995    C    8 0.957    H   72 0.948
     5  C   3.978    N   13 0.995    N    9 0.995    C    1 0.957    H   65 0.948
     6  C   3.978    N   10 0.995    N   14 0.995    C    2 0.957    H   66 0.948
     7  C   3.978    N   11 0.995    N   15 0.995    C    3 0.957    H   67 0.948
     8  C   3.978    N   12 0.995    N   16 0.995    C    4 0.957    H   68 0.948
     9  N   3.418    C   25 1.100    C   41 0.997    C    5 0.995    O   33 0.150
    10  N   3.418    C   26 1.100    C   42 0.997    C    6 0.995    O   34 0.150
    11  N   3.418    C   27 1.100    C   43 0.997    C    7 0.995    O   35 0.150
    12  N   3.418    C   28 1.100    C   44 0.997    C    8 0.995    O   36 0.150
    13  N   3.418    C   29 1.100    C   45 0.997    C    5 0.995    O   37 0.150
    14  N   3.418    C   30 1.100    C   46 0.997    C    6 0.995    O   38 0.150
    15  N   3.418    C   31 1.100    C   47 0.997    C    7 0.995    O   39 0.150
    16  N   3.418    C   32 1.100    C   48 0.997    C    8 0.995    O   40 0.150
    17  N   3.418    C   25 1.100    C   42 0.997    C    1 0.995    O   33 0.150
    18  N   3.418    C   26 1.100    C   43 0.997    C    2 0.995    O   34 0.150
    19  N   3.418    C   27 1.100    C   48 0.997    C    3 0.995    O   35 0.150
    20  N   3.418    C   28 1.100    C   45 0.997    C    4 0.995    O   36 0.150
    21  N   3.418    C   29 1.100    C   46 0.997    C    1 0.995    O   37 0.150
    22  N   3.418    C   30 1.100    C   47 0.997    C    2 0.995    O   38 0.150
    23  N   3.418    C   31 1.100    C   44 0.997    C    3 0.995    O   39 0.150
    24  N   3.418    C   32 1.100    C   41 0.997    C    4 0.995    O   40 0.150
    25  C   3.966    O   33 1.702    N    9 1.100    N   17 1.100
    26  C   3.966    O   34 1.702    N   10 1.100    N   18 1.100
    27  C   3.966    O   35 1.702    N   11 1.100    N   19 1.100
    28  C   3.966    O   36 1.702    N   12 1.100    N   20 1.100
    29  C   3.966    O   37 1.702    N   13 1.100    N   21 1.100
    30  C   3.966    O   38 1.702    N   14 1.100    N   22 1.100
    31  C   3.966    O   39 1.702    N   15 1.100    N   23 1.100
    32  C   3.966    O   40 1.702    N   16 1.100    N   24 1.100
    33  O   2.061    C   25 1.702    N    9 0.150    N   17 0.150
    34  O   2.061    C   26 1.702    N   10 0.150    N   18 0.150
    35  O   2.061    C   27 1.702    N   11 0.150    N   19 0.150
    36  O   2.061    C   28 1.702    N   12 0.150    N   20 0.150
    37  O   2.061    C   29 1.702    N   13 0.150    N   21 0.150
    38  O   2.061    C   30 1.702    N   14 0.150    N   22 0.150
    39  O   2.061    C   31 1.702    N   15 0.150    N   23 0.150
    40  O   2.061    C   32 1.702    N   16 0.150    N   24 0.150
    41  C   3.969    N    9 0.997    N   24 0.997    H   49 0.965    H   57 0.957
    42  C   3.969    N   10 0.997    N   17 0.997    H   50 0.965    H   58 0.957
    43  C   3.969    N   11 0.997    N   18 0.997    H   51 0.965    H   59 0.957
    44  C   3.969    N   12 0.997    N   23 0.997    H   52 0.965    H   60 0.957
    45  C   3.969    N   13 0.997    N   20 0.997    H   53 0.965    H   61 0.957
    46  C   3.969    N   14 0.997    N   21 0.997    H   54 0.965    H   62 0.957
    47  C   3.969    N   15 0.997    N   22 0.997    H   55 0.965    H   63 0.957
    48  C   3.969    N   16 0.997    N   19 0.997    H   56 0.965    H   64 0.957
    49  H   0.998    C   41 0.965
    50  H   0.998    C   42 0.965
    51  H   0.998    C   43 0.965
    52  H   0.998    C   44 0.965
    53  H   0.998    C   45 0.965
    54  H   0.998    C   46 0.965
    55  H   0.998    C   47 0.965
    56  H   0.998    C   48 0.965
    57  H   0.994    C   41 0.957
    58  H   0.994    C   42 0.957
    59  H   0.994    C   43 0.957
    60  H   0.994    C   44 0.957
    61  H   0.994    C   45 0.957
    62  H   0.994    C   46 0.957
    63  H   0.994    C   47 0.957
    64  H   0.994    C   48 0.957
    65  H   0.999    C    5 0.948
    66  H   0.999    C    6 0.948
    67  H   0.999    C    7 0.948
    68  H   0.999    C    8 0.948
    69  H   0.999    C    1 0.948
    70  H   0.999    C    2 0.948
    71  H   0.999    C    3 0.948
    72  H   0.999    C    4 0.948
    73  AR  0.028
 density
 
 cube file module (SG, 7/16)
 cube_pthr     :   0.005
 cube_step     :   0.400
 non-zero P (%):  30.439   nmat:    7808
 Grid Boundaries (x y z) :
   11.7833214164115        11.7833214208151        8.93714980857955     
  -11.7833214191417       -11.7833214219176       -8.93714980935543     
 Total # of points                156645
 writing density.cub
 N    (numint) : ******
cpu  time for cube   35.55 s
wall time for cube   33.49 s
 
molecular dipole:
                 x           y           z       tot (Debye)
 q only:       -0.000       0.000       0.000
   full:        0.000       0.000       0.000       0.000
molecular quadrupole (traceless):
                xx          xy          yy          xz          yz          zz
 q only:       50.799      -0.000      50.799      -0.000       0.000    -101.598
  q+dip:       62.718      -0.000      62.718      -0.000      -0.000    -125.436
   full:       63.607      -0.000      63.607      -0.000      -0.000    -127.214
 SCC converged in                     14  cycles
 
SCC energy    :    -153.0951579
rep           :       1.5022331
ES            :      -0.0043396
AES           :       0.0137741
disp          :      -0.1147488
XB            :       0.0000000
fix           :       0.0000000
total E       :    -151.7076735
atomizationE  :      19.6875559    12354.13
(atE without considerung molecular charge,
 total energy contains solvation terms)
H-L gap (eV)  :          5.2438
 
       ===================================
       |          GMD driver             |
       ===================================
 
 
 MD time /ps        :   50.00
 dt /fs             :    4.00
 SCC accuracy       :    1.00
 temperature /K     :  298.15
 max steps          : 12500
 block length (av.) :   875
 dumpstep(trj) /fs  :   50.00    12
 dumpstep(coords)/fs: 1000.00   250
 minimum runtime(ps):   5.0
 maximum runtime(ps):  50.0
 H atoms mass (amu) :     4
 # deg. of freedom  :   135
 SHAKE on. # bonds  :                    84  all: T
 Berendsen THERMOSTAT on
 EQUILIBRATION mode
         time (ps)    <Epot>      Ekin   <T>   T     Etot
  q data taken from xtbrestart
  CAMM data taken from xtbrestart
      0    0.00      0.00000   0.0380    0.    0.  -151.66970
est. speed in wall clock h for 100 ps :  2.21
    200    0.80   -150.93480   0.0208   82.   98.  -151.67008
    400    1.60   -151.31038   0.0206   86.   96.  -151.66654
    600    2.40   -151.43596   0.0179   87.   84.  -151.66938
    800    3.20   -151.49886   0.0207   88.   97.  -151.66717
block <Epot> / <T> :    -151.68820   88.     drift:  0.99D+02   Tbath : 134.
   1000    4.00   -151.53584   0.0280   91.  131.  -151.64868
   1200    4.80   -151.55956   0.0270   98.  126.  -151.65120
   1400    5.60   -151.57648   0.0305  104.  143.  -151.65257
   1600    6.40   -151.58919   0.0330  107.  154.  -151.64793
block <Epot> / <T> :    -151.67869  132.     drift:  0.99D+02   Tbath : 201.
   1800    7.20   -151.59893   0.0346  111.  162.  -151.62653
   2000    8.00   -151.60555   0.0380  119.  178.  -151.62323
   2200    8.80   -151.61082   0.0483  127.  226.  -151.62419
   2400    9.60   -151.61522   0.0443  133.  207.  -151.61969
   2600   10.40   -151.61896   0.0432  138.  202.  -151.61851
block <Epot> / <T> :    -151.66447  197.     drift:  0.99D+02   Tbath : 298.
   2800   11.20   -151.62122   0.0631  147.  295.  -151.57818
   3000   12.00   -151.62267   0.0586  157.  274.  -151.58407
   3200   12.80   -151.62391   0.0708  166.  331.  -151.57951
   3400   13.60   -151.62507   0.0669  174.  313.  -151.57884
block <Epot> / <T> :    -151.64422  293.     drift:  0.15D-01   Tbath : 298.
   3600   14.40   -151.62613   0.0579  181.  271.  -151.57746
   3800   15.20   -151.62707   0.0651  187.  304.  -151.58198
   4000   16.00   -151.62793   0.0696  192.  325.  -151.57704
   4200   16.80   -151.62867   0.0652  197.  305.  -151.58062
block <Epot> / <T> :    -151.64402  298.     drift:  0.12D-01   Tbath : 298.
   4400   17.60   -151.62937   0.0677  202.  317.  -151.57826
   4600   18.40   -151.63001   0.0642  206.  300.  -151.57738
   4800   19.20   -151.63056   0.0586  210.  274.  -151.58890
   5000   20.00   -151.63110   0.0680  214.  318.  -151.57848
   5200   20.80   -151.63158   0.0603  217.  282.  -151.58218
block <Epot> / <T> :    -151.64374  298.     drift:  0.62D-02   Tbath : 298.
   5400   21.60   -151.63202   0.0589  220.  276.  -151.57770
   5600   22.40   -151.63242   0.0719  223.  336.  -151.57552
   5800   23.20   -151.63281   0.0565  225.  265.  -151.58456
   6000   24.00   -151.63317   0.0617  228.  288.  -151.59128
block <Epot> / <T> :    -151.64359  298.     drift:  0.22D-03   Tbath : 298.
 GOOD AVERAGES REACHED
 average properties 
 Epot               :  -151.658132034194     
 Epot (accurate SCC):  -151.658036903162     
 Ekin               :  4.899368187320542E-002
 Etot               :  -151.609138352321     
 T                  :   229.199449390724     
 normal exit of md()
 
 MD time /ps        :   50.00
 dt /fs             :    4.00
 SCC accuracy       :    1.00
 temperature /K     :  298.15
 max steps          : 50000
 block length (av.) :   875
 dumpstep(trj) /fs  :   50.00    12
 dumpstep(coords)/fs: 1000.00   250
 minimum runtime(ps):  50.0
 maximum runtime(ps): 200.0
 H atoms mass (amu) :     4
 # deg. of freedom  :   135
 SHAKE on. # bonds  :                    84  all: T
 Berendsen THERMOSTAT on
 GMD mode
 RESTART
         time (ps)    <Epot>      Ekin   <T>   T     Etot
  q data taken from xtbrestart
  CAMM data taken from xtbrestart
 reading input structure for Re-R0 averaging
      0    0.00      0.00000   0.0619    0.    0.  -151.57611
est. speed in wall clock h for 100 ps :  2.28
    200    0.80   -150.89004   0.0610  296.  285.  -151.57635
    400    1.60   -151.26601   0.0532  296.  249.  -151.58681
    600    2.40   -151.39166   0.0680  296.  318.  -151.58543
    800    3.20   -151.45451   0.0672  297.  314.  -151.57673
block <Epot> / <T> :    -151.64372  296.     drift:  0.99D+02   Tbath : 298.
   1000    4.00   -151.49216   0.0581  297.  272.  -151.57607
   1200    4.80   -151.51730   0.0659  297.  308.  -151.58136
   1400    5.60   -151.53522   0.0639  297.  299.  -151.58207
   1600    6.40   -151.54877   0.0678  297.  317.  -151.57029
block <Epot> / <T> :    -151.64337  299.     drift:  0.99D+02   Tbath : 298.
   1800    7.20   -151.55934   0.0601  298.  281.  -151.58470
   2000    8.00   -151.56783   0.0609  298.  285.  -151.57847
   2200    8.80   -151.57474   0.0604  298.  282.  -151.58555
   2400    9.60   -151.58056   0.0642  298.  300.  -151.57935
   2600   10.40   -151.58549   0.0656  298.  307.  -151.58005
block <Epot> / <T> :    -151.64433  298.     drift:  0.99D+02   Tbath : 298.
   2800   11.20   -151.58973   0.0586  298.  274.  -151.58046
   3000   12.00   -151.59339   0.0520  298.  243.  -151.58485
   3200   12.80   -151.59658   0.0660  298.  309.  -151.57762
   3400   13.60   -151.59934   0.0620  298.  290.  -151.58254
block <Epot> / <T> :    -151.64426  297.     drift: -0.26D-03   Tbath : 298.
   3600   14.40   -151.60180   0.0581  298.  272.  -151.58296
   3800   15.20   -151.60398   0.0621  298.  291.  -151.58398
   4000   16.00   -151.60594   0.0713  298.  334.  -151.57567
   4200   16.80   -151.60773   0.0570  298.  266.  -151.58393
block <Epot> / <T> :    -151.64339  298.     drift: -0.14D-05   Tbath : 298.
   4400   17.60   -151.60937   0.0643  298.  301.  -151.58672
   4600   18.40   -151.61086   0.0705  298.  330.  -151.57750
   4800   19.20   -151.61223   0.0587  298.  274.  -151.58340
   5000   20.00   -151.61350   0.0598  298.  280.  -151.58597
   5200   20.80   -151.61468   0.0713  298.  334.  -151.58215
block <Epot> / <T> :    -151.64403  299.     drift:  0.18D-03   Tbath : 298.
   5400   21.60   -151.61580   0.0574  298.  269.  -151.58063
   5600   22.40   -151.61684   0.0631  298.  295.  -151.59079
   5800   23.20   -151.61780   0.0646  298.  302.  -151.58362
   6000   24.00   -151.61871   0.0586  298.  274.  -151.58436
block <Epot> / <T> :    -151.64502  299.     drift: -0.29D-03   Tbath : 298.
   6200   24.80   -151.61956   0.0691  298.  323.  -151.57181
   6400   25.60   -151.62034   0.0659  298.  308.  -151.58615
   6600   26.40   -151.62107   0.0720  298.  337.  -151.58774
   6800   27.20   -151.62175   0.0628  298.  294.  -151.58838
   7000   28.00   -151.62238   0.0599  298.  280.  -151.57966
block <Epot> / <T> :    -151.64419  297.     drift: -0.34D-03   Tbath : 298.
   7200   28.80   -151.62297   0.0566  298.  265.  -151.58620
   7400   29.60   -151.62356   0.0688  298.  322.  -151.57840
   7600   30.40   -151.62410   0.0603  298.  282.  -151.58930
   7800   31.20   -151.62461   0.0624  298.  292.  -151.58591
block <Epot> / <T> :    -151.64408  298.     drift:  0.68D-04   Tbath : 298.
   8000   32.00   -151.62508   0.0595  298.  279.  -151.57665
   8200   32.80   -151.62553   0.0604  298.  283.  -151.57108
   8400   33.60   -151.62596   0.0653  298.  306.  -151.58083
   8600   34.40   -151.62636   0.0594  298.  278.  -151.57920
block <Epot> / <T> :    -151.64334  298.     drift:  0.52D-03   Tbath : 298.
   8800   35.20   -151.62674   0.0587  298.  274.  -151.57796
   9000   36.00   -151.62712   0.0637  298.  298.  -151.57334
   9200   36.80   -151.62746   0.0607  298.  284.  -151.59006
   9400   37.60   -151.62781   0.0637  298.  298.  -151.57581
   9600   38.40   -151.62815   0.0723  298.  338.  -151.57389
block <Epot> / <T> :    -151.64353  298.     drift:  0.27D-03   Tbath : 298.
   9800   39.20   -151.62847   0.0591  298.  276.  -151.57723
  10000   40.00   -151.62879   0.0609  298.  285.  -151.58384
  10200   40.80   -151.62909   0.0680  298.  318.  -151.58623
  10400   41.60   -151.62938   0.0565  298.  264.  -151.58631
block <Epot> / <T> :    -151.64413  298.     drift: -0.34D-04   Tbath : 298.
  10600   42.40   -151.62966   0.0619  298.  290.  -151.57902
  10800   43.20   -151.62992   0.0567  298.  265.  -151.57475
  11000   44.00   -151.63017   0.0597  298.  279.  -151.57981
  11200   44.80   -151.63042   0.0638  298.  298.  -151.57837
block <Epot> / <T> :    -151.64412  299.     drift: -0.29D-03   Tbath : 298.
  11400   45.60   -151.63067   0.0612  298.  286.  -151.58076
  11600   46.40   -151.63090   0.0672  298.  315.  -151.57237
  11800   47.20   -151.63112   0.0733  298.  343.  -151.57380
  12000   48.00   -151.63133   0.0658  298.  308.  -151.57239
  12200   48.80   -151.63153   0.0573  298.  268.  -151.58439
block <Epot> / <T> :    -151.64385  298.     drift: -0.94D-04   Tbath : 298.
  12400   49.60   -151.63172   0.0563  298.  263.  -151.57929
 GOOD AVERAGES REACHED
 average properties 
 Epot               :  -151.643948626567     
 Epot (accurate SCC):  -151.643997552821     
 Ekin               :  6.368946113800095E-002
 Etot               :  -151.580259165429     
 T                  :   297.948406135304     
 corrections to Re Z-matrix:
   1  C     0.000000      0.0000      0.0000     0    0    0
   2  C    -0.019050      0.0000      0.0000     1    0    0
   3  C    -0.016983      0.0175      0.0000     2    1    0
   4  C    -0.018632     -0.0434      0.0006     3    2    1
   5  C     0.000000     -0.0933      2.5678     1    2    3
   6  C     0.000000      0.0175      0.0583     2    1    3
   7  C     0.000000     -0.0008     -0.0309     3    2    1
   8  C     0.000000      0.0464      0.0308     4    3    2
   9  N     0.000000     -0.0993      0.1008     5    1    2
  10  N     0.000000     -0.0966     -0.0953     6    2    1
  11  N     0.000000     -0.0892      0.0834     7    3    2
  12  N     0.000000     -0.0853     -0.1056     8    4    3
  13  N     0.000000     -0.1182     -0.0447     5    1    2
  14  N     0.000000     -0.0898     -0.1955     6    2    1
  15  N     0.000000     -0.0915     -0.0315     7    3    2
  16  N     0.000000     -0.1014      0.0031     8    4    3
  17  N     0.000000      0.2745      0.0063     1    2    3
  18  N     0.000000      0.0224     -0.0512     2    1    3
  19  N     0.000000      0.0336     -0.1020     3    2    1
  20  N     0.000000      0.0059      0.0675     4    3    2
  21  N     0.000000      0.0477      0.1215     1    2    3
  22  N     0.000000     -0.0135      0.0818     2    1    3
  23  N     0.000000      0.0428      0.0464     3    2    1
  24  N     0.000000      0.0162     -0.0310     4    3    2
  25  C     0.000000     -0.6411      1.8902     9    5    1
  26  C     0.000000     -0.6582      2.2358    10    6    2
  27  C     0.000000     -0.6195      1.8209    11    7    3
  28  C     0.000000     -0.5855      0.0647    12    8    4
  29  C     0.000000     -0.6202     -0.1816    13    5    1
  30  C     0.000000     -0.6118      0.1085    14    6    2
  31  C     0.000000     -0.5890     -0.2183    15    7    3
  32  C     0.000000     -0.6034      1.7065    16    8    4
  33  O     0.000000     -0.2354     -0.4380    25    9    5
  34  O     0.000000     -0.2287     -0.3295    26   10    6
  35  O     0.000000     -0.2270     -0.4129    27   11    7
  36  O     0.000000     -0.2298      0.0624    28   12    8
  37  O     0.000000     -0.2266      0.5444    29   13    5
  38  O     0.000000     -0.2316      0.1302    30   14    6
  39  O     0.000000     -0.2154      0.4100    31   15    7
  40  O     0.000000     -0.2331     -0.2793    32   16    8
  41  C     0.000000     -0.7688      0.4036     9    5    1
  42  C     0.000000     -0.8347      0.0068    10    6    2
  43  C     0.000000     -0.6895      0.3418    11    7    3
  44  C     0.000000     -0.7095     -0.3721    12    8    4
  45  C     0.000000     -0.7244     -0.2508    13    5    1
  46  C     0.000000     -0.7829     -0.5093    14    6    2
  47  C     0.000000     -0.7080     -0.2189    15    7    3
  48  C     0.000000     -0.7166      0.2073    16    8    4
  49  H     0.000000     -0.2058     -0.2737    41    9    5
  50  H     0.000000     -0.1903      0.2111    42   10    6
  51  H     0.000000     -0.1805     -0.3034    43   11    7
  52  H     0.000000     -0.1870      0.2760    44   12    8
  53  H     0.000000     -0.1986      0.1395    45   13    5
  54  H     0.000000     -0.2008      0.4645    46   14    6
  55  H     0.000000     -0.1927      0.0582    47   15    7
  56  H     0.000000     -0.1893     -0.0612    48   16    8
  57  H     0.000000      0.1790      0.2392    41    9    5
  58  H     0.000000      0.1883      0.6274    42   10    6
  59  H     0.000000      0.1357      0.1430    43   11    7
  60  H     0.000000      0.1558     -0.1900    44   12    8
  61  H     0.000000      0.1808     -0.3355    45   13    5
  62  H     0.000000      0.1465      0.0234    46   14    6
  63  H     0.000000      0.1879     -0.4022    47   15    7
  64  H     0.000000      0.1772      0.3762    48   16    8
  65  H     0.000000     -0.1113      0.0307     5    1    2
  66  H     0.000000     -0.1008     -0.1415     6    2    1
  67  H     0.000000     -0.1086      0.0262     7    3    2
  68  H     0.000000     -0.1022     -0.0529     8    4    3
  69  H     0.000000     -0.1059      0.1356     1    2    3
  70  H     0.000000     -0.4009      0.0036     2    1    3
  71  H     0.000000     -0.4562     -0.0025     3    2    1
  72  H     0.000000     -0.3739      0.0240     4    3    2
  73  AR    0.000958     -0.1250      0.0623    27   11    7
Be      (a,b,c, in MHz) :     94.943     94.943     84.157
Be - B0 (a,b,c, in MHz) :     -0.171      0.009      0.019
 corrected structure on <xtb_mdav.coord>
 normal exit of md()
 
speedup 11.69
cpu  time for all   19 h 58 m  1.8 s
wall time for all    1 h 42 m 30.4 s
