 
        ______________________________________
       |                                      |
       |           ==================         |
       |                 x T B                |
       |           ==================         |
       |               S. Grimme              |
       |        Universitaet Bonn, MCTC       |
       |         2015-18, Version 5.0         |
       |      Sat Jan 20 11:00:33 CET 2018    |
       |______________________________________|
 
        This code comes without any warranty
        for non-commercial, academia use only.
        Cite GFN-xTB work as:
        S. Grimme, C. Bannwarth, P. Shushkov
        JCTC, 13 (2017) 1989-2009
        for GFN2:
        C. Bannwarth, S. Ehlert, S. Grimme
        to be published.
        sTDA-xTB:
        S. Grimme  &  C. Bannwarth, JCP 145 (2016) 054103
        in the mass-spec context additionally:
        V. Asgeirsson, C.Bauer, S. Grimme, Chem. Sci. 8 (2017) 4879
 
        with help from
        P. Shushkov, G. Brandenburg, S. Dohm, J. Pisarek,
        F. März, M. Checinski, S. Ehrlich, S. Spicher, 
        P. Pracht, E. Caldeweyher, S. Ehlert, and C. Bannwarth.
 
        usage        :
        xtb <coord_file> [options]
        where <coord_file> is a valid file of TM)
        (*coord, Bohr) or xmol (*xyz, Angstroem)
        format.

        options:
        -chrg <int>   : molecular charge
        -uhf  <int>   : # of unpaired electrons(=2*S)
        -nox          : skip second, extended part in sTDA-xTB
        -pop          : do population analysis
                      : (default for -nox)
        -mowr <real>  : cut MO write above (def.3 Eh)
        -molden       : write formatted molden file
        -parx <file>  : read parameters for sTDA-xTB
                        calc (def:~/.param_stda2.xtb)
        -parv <file>  : read parameters for vTB part in
                        sTDA-xTB (def: ~/.param_stda1.xtb)
        -xtemp <real> : el. temp for xTB (def. 0 K)
        -etemp <real> : el. temp for GFN (def. 300 K)
        -fod          : do a xTB calc. of the FOD
                        and write molden.input file 
                        with appropriate occupations
                        for plotting. Def. T=12500 K
 
        -gfn          : use GFN-xTB
        -grad         : GFN-xTB gradient
        -acc <real>   : GFN-xTB accuracy (def. 1.0)
        -opt [level]  : optimize at GFN-xTB
                      : level=crude,vloose,loose,
                      :       tight,vtight
        -hess         : compute Hessian at GFN-xTB
        -ohess        : optimize and compute Hessian
        -omd          : optimize and do MD
        -siman        : conformational search
        -screen       : opt. loop over ensemble
        -gmd          : annealed MD for GMD procedure
        -modef        : vib mode following
        -gbsa [string1] [string2]
                        use GBSA implicit solvent
                        for solvent [string1] and
                        solvation state [string2]=
                        reference, bar1M (default=1M)
        additional GFN/opt/MD/siman options read from
        $XTBHOME/.xtbrc or $set in coordinate file
 
       spin and charge state information can be on:
       <.CHRG> (charge) and <.UHF> (=nalpha-nbeta)
       -uhf and -chrg override the file info.
       useful machine settings:
       setenv MKL_NUM_THREADS <NCORE_ON_YOUR_MACHINE>
       setenv OMP_STACKSIZE 500m
       limit stacksize unlimited
 
       total energies in Eh, gaps/HL energies in eV
       please read REVISION and HOWTO files carefully
 =============================
  # OMP threads =                     1
 =============================
 
 xtbhome directory:/Applications/xtb/
 
 argument                      1 :-opt
 argument                      2 :tight
 
 number of atoms            :    73
 number of electrons        :   256
 charge                     :  0
 spin                       : 0.0
 first test random number   :  0.4084
 
 
KAB for pair M(3d)-M(3d) :  1.1000
KAB for pair M(4d)-M(4d) :  1.2000
KAB for pair M(5d)-M(5d) :  1.2000
 -----------------------------------------
  G F N (Geometry, Frequency, Non-covalent)
        parametrization, version                     2
 /Applications/xtb/.param_gfn2.xtb
 -----------------------------------------
      method parameters     
 k(s)        :  1.8500
 k(p)        :  2.2500
 k(d)        :  2.0000
 k(f)        :  0.0000
 alphaj      :  1.0000
 kEN (H0ij)  : -2.3620
 D3 a1       :  0.6900
 D3 a2       :  4.0530
 D3 s8       :  2.0000
 D3atm       :  1.0000
 AESdamp     :  5.5000
 AESrad      :  1.9230
 expscalexp  : -0.2500
 
     -------------------------
     ! NO SOLVENT MODEL USED !
     -------------------------
 
 doing EN charges ...
 sum q : -0.1776357D-14
 point charge moment (au)
     X       Y       Z   
   0.0000   0.0000   0.0000  total (Debye):    0.000
 
            Z      q(EN)   CN      Cart. coordinates
     1  C   4.0    0.21    4.30    -6.05438    -3.08449     0.00000
     2  C   4.0    0.21    4.30     3.08449    -6.05438     0.00000
     3  C   4.0    0.21    4.30     6.05438     3.08449     0.00000
     4  C   4.0    0.21    4.30    -3.08449     6.05438     0.00000
     5  C   4.0    0.21    4.30    -6.79120    -0.19130     0.00000
     6  C   4.0    0.21    4.30     0.19130    -6.79120     0.00000
     7  C   4.0    0.21    4.30     6.79120     0.19130     0.00000
     8  C   4.0    0.21    4.30    -0.19130     6.79120     0.00000
     9  N   5.0   -0.20    3.22    -5.73800     0.72618    -2.34751
    10  N   5.0   -0.20    3.22    -0.72618    -5.73800    -2.34751
    11  N   5.0   -0.20    3.22     5.73800    -0.72618    -2.34751
    12  N   5.0   -0.20    3.22     0.72618     5.73800     2.34751
    13  N   5.0   -0.20    3.22    -5.73800     0.72618     2.34751
    14  N   5.0   -0.20    3.22    -0.72618    -5.73800     2.34751
    15  N   5.0   -0.20    3.22     5.73800    -0.72618     2.34751
    16  N   5.0   -0.20    3.22     0.72618     5.73800    -2.34751
    17  N   5.0   -0.20    3.22    -4.69149    -3.38675    -2.34866
    18  N   5.0   -0.20    3.22     3.38675    -4.69149    -2.34866
    19  N   5.0   -0.20    3.22     4.69149     3.38675    -2.34866
    20  N   5.0   -0.20    3.22    -3.38675     4.69149     2.34866
    21  N   5.0   -0.20    3.22    -4.69149    -3.38675     2.34866
    22  N   5.0   -0.20    3.22     3.38675    -4.69149     2.34866
    23  N   5.0   -0.20    3.22     4.69149     3.38675     2.34866
    24  N   5.0   -0.20    3.22    -3.38675     4.69149    -2.34866
    25  C   4.0    0.44    3.26    -4.70498    -1.19998    -3.82454
    26  C   4.0    0.44    3.26     1.19998    -4.70498    -3.82454
    27  C   4.0    0.44    3.26     4.70498     1.19998    -3.82454
    28  C   4.0    0.44    3.26    -1.19998     4.70498     3.82454
    29  C   4.0    0.44    3.26    -4.70498    -1.19998     3.82454
    30  C   4.0    0.44    3.26     1.19998    -4.70498     3.82454
    31  C   4.0    0.44    3.26     4.70498     1.19998     3.82454
    32  C   4.0    0.44    3.26    -1.19998     4.70498    -3.82454
    33  O   6.0   -0.34    1.06    -4.01291    -1.02274    -5.99266
    34  O   6.0   -0.34    1.06     1.02274    -4.01291    -5.99266
    35  O   6.0   -0.34    1.06     4.01291     1.02274    -5.99266
    36  O   6.0   -0.34    1.06    -1.02274     4.01291     5.99266
    37  O   6.0   -0.34    1.06    -4.01291    -1.02274     5.99266
    38  O   6.0   -0.34    1.06     1.02274    -4.01291     5.99266
    39  O   6.0   -0.34    1.06     4.01291     1.02274     5.99266
    40  O   6.0   -0.34    1.06    -1.02274     4.01291    -5.99266
    41  C   4.0    0.25    4.13    -5.62643     3.33952    -3.16079
    42  C   4.0    0.25    4.13    -3.33952    -5.62643    -3.16079
    43  C   4.0    0.25    4.13     5.62643    -3.33952    -3.16079
    44  C   4.0    0.25    4.13     3.33952     5.62643     3.16079
    45  C   4.0    0.25    4.13    -5.62643     3.33952     3.16079
    46  C   4.0    0.25    4.13    -3.33952    -5.62643     3.16079
    47  C   4.0    0.25    4.13     5.62643    -3.33952     3.16079
    48  C   4.0    0.25    4.13     3.33952     5.62643    -3.16079
    49  H   1.0   -0.05    1.00    -7.31218     4.33968    -2.49085
    50  H   1.0   -0.05    1.00    -4.33968    -7.31218    -2.49085
    51  H   1.0   -0.05    1.00     7.31218    -4.33968    -2.49085
    52  H   1.0   -0.05    1.00     4.33968     7.31218     2.49085
    53  H   1.0   -0.05    1.00    -7.31218     4.33968     2.49085
    54  H   1.0   -0.05    1.00    -4.33968    -7.31218     2.49085
    55  H   1.0   -0.05    1.00     7.31218    -4.33968     2.49085
    56  H   1.0   -0.05    1.00     4.33968     7.31218    -2.49085
    57  H   1.0   -0.05    1.01    -5.59493     3.31919    -5.22651
    58  H   1.0   -0.05    1.01    -3.31919    -5.59493    -5.22651
    59  H   1.0   -0.05    1.01     5.59493    -3.31919    -5.22651
    60  H   1.0   -0.05    1.01     3.31919     5.59493     5.22651
    61  H   1.0   -0.05    1.01    -5.59493     3.31919     5.22651
    62  H   1.0   -0.05    1.01    -3.31919    -5.59493     5.22651
    63  H   1.0   -0.05    1.01     5.59493    -3.31919     5.22651
    64  H   1.0   -0.05    1.01     3.31919     5.59493    -5.22651
    65  H   1.0   -0.05    1.00    -8.85119     0.09604     0.00000
    66  H   1.0   -0.05    1.00    -0.09604    -8.85119     0.00000
    67  H   1.0   -0.05    1.00     8.85119    -0.09604     0.00000
    68  H   1.0   -0.05    1.00     0.09604     8.85119     0.00000
    69  H   1.0   -0.05    1.00    -7.72626    -4.32178     0.00000
    70  H   1.0   -0.05    1.00     4.32178    -7.72626     0.00000
    71  H   1.0   -0.05    1.00     7.72626     4.32178     0.00000
    72  H   1.0   -0.05    1.00    -4.32178     7.72626     0.00000
    73  AR  8.0   -0.11    0.19     0.00000     0.00000     0.00000
 
  Z AO/shell   Hii/eV     exponent
  1     Sat Jan 20 17:55:17 CET 2018    EN: 2.200 GAM: 0.531  GM3:-0.4370
     1s    -10.248275    1.266496
  6     Sat Jan 20 17:55:17 CET 2018    EN: 2.550 GAM: 0.417  GM3:-0.0654
     2s    -15.292509    2.030071
     2p    -10.408465    1.801676
  7     Sat Jan 20 17:55:17 CET 2018    EN: 3.040 GAM: 0.444  GM3:-0.1301
     2s    -16.687725    2.226550
     2p    -13.175143    1.981921
  8     Sat Jan 20 17:55:17 CET 2018    EN: 3.440 GAM: 0.468  GM3: 0.0937
     2s    -20.924998    2.442614
     2p    -15.243501    2.233841
 18     Sun Jan 21 09:08:08 CET 2018    EN: 3.500 GAM: 0.468  GM3: 0.0014
     3s    -24.196439    2.771788
     3p    -12.574561    2.188642
     3d     -1.094377    2.005636
 no old-style atom pair restraing (fixing) potential
 
 molecular fragmentation (1/2 indicates fragments):
1111111111111111111111111111111111111111111111111111111111111111111111112
# atoms in fragment 1/2:    72     1
 fragment masses (1/2) :      664.56       39.95
CMA distance (Bohr)    :   0.000
constraining FC (au)   :  0.0500
 
             =======================================
             |                                     |
             |        S C C  calculation           |
             |                                     |
             =======================================
 #proc     :                      1
 Ncao      :                    226
 Nao       :                    225
 Nel       :                    256
 T(el)     :   300.0
 intcut    :    25.0
 scfconv   :  0.100E-05
   qconv   :  0.200E-04
 intneglect:  0.100E-07
 broydamp  :      0.400
 Nshell    :                    123
 iter      E             dE          RMSdq      gap      omega  full diag
   1   -152.4556826 -0.152456E+03  0.976E+00    4.62       0.0  T
   2   -152.8812968 -0.425614E+00  0.537E+00    5.11       1.0  T
   3   -152.8207697  0.605270E-01  0.213E+00    4.53       1.0  T
   4   -152.9786427 -0.157873E+00  0.591E-01    5.11       1.0  T
   5   -152.9861085 -0.746577E-02  0.209E-01    5.07       1.0  T
   6   -152.9865290 -0.420539E-03  0.755E-02    5.09       1.0  T
   7   -152.9865863 -0.572914E-04  0.272E-02    5.08       1.0  T
   8   -152.9865956 -0.930820E-05  0.823E-03    5.09       1.4  T
   9   -152.9865963 -0.666301E-06  0.443E-03    5.09       2.6  T
  10   -152.9865965 -0.259931E-06  0.129E-03    5.09       9.0  T
  11   -152.9865965 -0.140259E-07  0.644E-04    5.09      18.2  T
  12   -152.9865966 -0.180019E-07  0.255E-04    5.09      45.8  T
  13   -152.9865966 -0.350238E-08  0.770E-05    5.09     151.9  T
  14   -152.9865966 -0.195115E-09  0.328E-05    5.09     356.9  T
speedup  7.91
cpu  time for SCC    2.31 s
wall time for SCC    0.29 s

          eigenvalues
 #    :         116        117        118        119        120        121        122        123
 occ. :        2.000      2.000      2.000      2.000      2.000      2.000      2.000      2.000
 eps  :       -10.431    -10.429    -10.429    -10.385    -10.383    -10.219    -10.196    -10.196
 #    :         124        125        126        127        128        129        130        131
 occ. :        2.000      2.000      2.000      2.000      2.000      0.000      0.000      0.000
 eps  :       -10.134    -10.122    -10.122    -10.088    -10.052     -4.967     -4.870     -4.715
 #    :         132        133        134        135        136        137        138        139
 occ. :        0.000      0.000      0.000      0.000      0.000      0.000      0.000      0.000
 eps  :        -4.715     -4.706     -4.706     -4.588     -4.483     -1.145     -1.136     -1.057
 
 
 Mulliken/CM5 charges        n(s)   n(p)   n(d)
     1 C   0.06641  0.14349   1.083  2.851  0.000
     2 C   0.06641  0.14349   1.083  2.851  0.000
     3 C   0.06641  0.14349   1.083  2.851  0.000
     4 C   0.06641  0.14349   1.083  2.851  0.000
     5 C   0.06646  0.14361   1.083  2.851  0.000
     6 C   0.06646  0.14361   1.083  2.851  0.000
     7 C   0.06646  0.14361   1.083  2.851  0.000
     8 C   0.06646  0.14361   1.083  2.851  0.000
     9 N  -0.03855 -0.27199   1.134  3.905  0.000
    10 N  -0.03855 -0.27199   1.134  3.905  0.000
    11 N  -0.03855 -0.27199   1.134  3.905  0.000
    12 N  -0.03855 -0.27199   1.134  3.905  0.000
    13 N  -0.03855 -0.27199   1.134  3.905  0.000
    14 N  -0.03855 -0.27199   1.134  3.905  0.000
    15 N  -0.03855 -0.27199   1.134  3.905  0.000
    16 N  -0.03855 -0.27199   1.134  3.905  0.000
    17 N  -0.03861 -0.27194   1.134  3.905  0.000
    18 N  -0.03861 -0.27194   1.134  3.905  0.000
    19 N  -0.03861 -0.27194   1.134  3.905  0.000
    20 N  -0.03861 -0.27194   1.134  3.905  0.000
    21 N  -0.03861 -0.27194   1.134  3.905  0.000
    22 N  -0.03861 -0.27194   1.134  3.905  0.000
    23 N  -0.03861 -0.27194   1.134  3.905  0.000
    24 N  -0.03861 -0.27194   1.134  3.905  0.000
    25 C   0.22955  0.39586   1.062  2.708  0.000
    26 C   0.22955  0.39586   1.062  2.708  0.000
    27 C   0.22955  0.39586   1.062  2.708  0.000
    28 C   0.22955  0.39586   1.062  2.708  0.000
    29 C   0.22955  0.39586   1.062  2.708  0.000
    30 C   0.22955  0.39586   1.062  2.708  0.000
    31 C   0.22955  0.39586   1.062  2.708  0.000
    32 C   0.22955  0.39586   1.062  2.708  0.000
    33 O  -0.39293 -0.43303   1.733  4.660  0.000
    34 O  -0.39293 -0.43303   1.733  4.660  0.000
    35 O  -0.39293 -0.43303   1.733  4.660  0.000
    36 O  -0.39293 -0.43303   1.733  4.660  0.000
    37 O  -0.39293 -0.43303   1.733  4.660  0.000
    38 O  -0.39293 -0.43303   1.733  4.660  0.000
    39 O  -0.39293 -0.43303   1.733  4.660  0.000
    40 O  -0.39293 -0.43303   1.733  4.660  0.000
    41 C   0.03341  0.05513   1.073  2.894  0.000
    42 C   0.03341  0.05513   1.073  2.894  0.000
    43 C   0.03341  0.05513   1.073  2.894  0.000
    44 C   0.03341  0.05513   1.073  2.894  0.000
    45 C   0.03341  0.05513   1.073  2.894  0.000
    46 C   0.03341  0.05513   1.073  2.894  0.000
    47 C   0.03341  0.05513   1.073  2.894  0.000
    48 C   0.03341  0.05513   1.073  2.894  0.000
    49 H   0.03690  0.11351   0.963  0.000  0.000
    50 H   0.03690  0.11351   0.963  0.000  0.000
    51 H   0.03690  0.11351   0.963  0.000  0.000
    52 H   0.03690  0.11351   0.963  0.000  0.000
    53 H   0.03690  0.11351   0.963  0.000  0.000
    54 H   0.03690  0.11351   0.963  0.000  0.000
    55 H   0.03690  0.11351   0.963  0.000  0.000
    56 H   0.03690  0.11351   0.963  0.000  0.000
    57 H   0.07452  0.16101   0.925  0.000  0.000
    58 H   0.07452  0.16101   0.925  0.000  0.000
    59 H   0.07452  0.16101   0.925  0.000  0.000
    60 H   0.07452  0.16101   0.925  0.000  0.000
    61 H   0.07452  0.16101   0.925  0.000  0.000
    62 H   0.07452  0.16101   0.925  0.000  0.000
    63 H   0.07452  0.16101   0.925  0.000  0.000
    64 H   0.07452  0.16101   0.925  0.000  0.000
    65 H   0.02920  0.10797   0.971  0.000  0.000
    66 H   0.02920  0.10797   0.971  0.000  0.000
    67 H   0.02920  0.10797   0.971  0.000  0.000
    68 H   0.02920  0.10797   0.971  0.000  0.000
    69 H   0.02930  0.10806   0.971  0.000  0.000
    70 H   0.02930  0.10806   0.971  0.000  0.000
    71 H   0.02930  0.10806   0.971  0.000  0.000
    72 H   0.02930  0.10806   0.971  0.000  0.000
    73 AR  0.00019 -0.00096   2.000  5.994  0.006
 
 Wiberg/Mayer (AO) data. WBOs > 0.1 written file <wbo>
 largest (>0.05) Wiberg bond orders for each atom
           total WBO             WBO to atom ...
     1  C   3.976    N   17 0.996    N   21 0.996    C    5 0.951    H   69 0.950
     2  C   3.976    N   18 0.996    N   22 0.996    C    6 0.951    H   70 0.950
     3  C   3.976    N   19 0.996    N   23 0.996    C    7 0.951    H   71 0.950
     4  C   3.976    N   20 0.996    N   24 0.996    C    8 0.951    H   72 0.950
     5  C   3.976    N   13 0.996    N    9 0.996    C    1 0.951    H   65 0.950
     6  C   3.976    N   14 0.996    N   10 0.996    C    2 0.951    H   66 0.950
     7  C   3.976    N   11 0.996    N   15 0.996    C    3 0.951    H   67 0.950
     8  C   3.976    N   16 0.996    N   12 0.996    C    4 0.951    H   68 0.950
     9  N   3.414    C   25 1.095    C    5 0.996    C   41 0.995    O   33 0.150
    10  N   3.414    C   26 1.095    C    6 0.996    C   42 0.995    O   34 0.150
    11  N   3.414    C   27 1.095    C    7 0.996    C   43 0.995    O   35 0.150
    12  N   3.414    C   28 1.095    C    8 0.996    C   44 0.995    O   36 0.150
    13  N   3.414    C   29 1.095    C    5 0.996    C   45 0.995    O   37 0.150
    14  N   3.414    C   30 1.095    C    6 0.996    C   46 0.995    O   38 0.150
    15  N   3.414    C   31 1.095    C    7 0.996    C   47 0.995    O   39 0.150
    16  N   3.414    C   32 1.095    C    8 0.996    C   48 0.995    O   40 0.150
    17  N   3.413    C   25 1.095    C    1 0.996    C   42 0.995    O   33 0.150
    18  N   3.413    C   26 1.095    C    2 0.996    C   43 0.995    O   34 0.150
    19  N   3.413    C   27 1.095    C    3 0.996    C   48 0.995    O   35 0.150
    20  N   3.413    C   28 1.095    C    4 0.996    C   45 0.995    O   36 0.150
    21  N   3.413    C   29 1.095    C    1 0.996    C   46 0.995    O   37 0.150
    22  N   3.413    C   30 1.095    C    2 0.996    C   47 0.995    O   38 0.150
    23  N   3.413    C   31 1.095    C    3 0.996    C   44 0.995    O   39 0.150
    24  N   3.413    C   32 1.095    C    4 0.996    C   41 0.995    O   40 0.150
    25  C   3.964    O   33 1.709    N    9 1.095    N   17 1.095
    26  C   3.964    O   34 1.709    N   10 1.095    N   18 1.095
    27  C   3.964    O   35 1.709    N   11 1.095    N   19 1.095
    28  C   3.964    O   36 1.709    N   12 1.095    N   20 1.095
    29  C   3.964    O   37 1.709    N   13 1.095    N   21 1.095
    30  C   3.964    O   38 1.709    N   14 1.095    N   22 1.095
    31  C   3.964    O   39 1.709    N   15 1.095    N   23 1.095
    32  C   3.964    O   40 1.709    N   16 1.095    N   24 1.095
    33  O   2.066    C   25 1.709    N    9 0.150    N   17 0.150
    34  O   2.066    C   26 1.709    N   10 0.150    N   18 0.150
    35  O   2.066    C   27 1.709    N   11 0.150    N   19 0.150
    36  O   2.066    C   28 1.709    N   12 0.150    N   20 0.150
    37  O   2.066    C   29 1.709    N   13 0.150    N   21 0.150
    38  O   2.066    C   30 1.709    N   14 0.150    N   22 0.150
    39  O   2.066    C   31 1.709    N   15 0.150    N   23 0.150
    40  O   2.066    C   32 1.709    N   16 0.150    N   24 0.150
    41  C   3.968    N   24 0.995    N    9 0.995    H   49 0.965    H   57 0.959
    42  C   3.968    N   17 0.995    N   10 0.995    H   50 0.965    H   58 0.959
    43  C   3.968    N   18 0.995    N   11 0.995    H   51 0.965    H   59 0.959
    44  C   3.968    N   23 0.995    N   12 0.995    H   52 0.965    H   60 0.959
    45  C   3.968    N   20 0.995    N   13 0.995    H   53 0.965    H   61 0.959
    46  C   3.968    N   21 0.995    N   14 0.995    H   54 0.965    H   62 0.959
    47  C   3.968    N   22 0.995    N   15 0.995    H   55 0.965    H   63 0.959
    48  C   3.968    N   19 0.995    N   16 0.995    H   56 0.965    H   64 0.959
    49  H   0.998    C   41 0.965
    50  H   0.998    C   42 0.965
    51  H   0.998    C   43 0.965
    52  H   0.998    C   44 0.965
    53  H   0.998    C   45 0.965
    54  H   0.998    C   46 0.965
    55  H   0.998    C   47 0.965
    56  H   0.998    C   48 0.965
    57  H   0.994    C   41 0.959
    58  H   0.994    C   42 0.959
    59  H   0.994    C   43 0.959
    60  H   0.994    C   44 0.959
    61  H   0.994    C   45 0.959
    62  H   0.994    C   46 0.959
    63  H   0.994    C   47 0.959
    64  H   0.994    C   48 0.959
    65  H   0.999    C    5 0.950
    66  H   0.999    C    6 0.950
    67  H   0.999    C    7 0.950
    68  H   0.999    C    8 0.950
    69  H   0.999    C    1 0.950
    70  H   0.999    C    2 0.950
    71  H   0.999    C    3 0.950
    72  H   0.999    C    4 0.950
    73  AR  0.023
 density
 
 cube file module (SG, 7/16)
 cube_pthr     :   0.005
 cube_step     :   0.400
 non-zero P (%):  30.205   nmat:    7748
 Grid Boundaries (x y z) :
   11.8511928876158        11.8511928876158        8.99266113589235     
  -11.8511928876158       -11.8511928876158       -8.99266113589235     
 Total # of points                162000
 writing density.cub
 N    (numint) : ******
cpu  time for cube   36.00 s
wall time for cube   33.98 s
 
molecular dipole:
                 x           y           z       tot (Debye)
 q only:       -0.000       0.000       0.000
   full:       -0.000       0.000       0.000       0.000
molecular quadrupole (traceless):
                xx          xy          yy          xz          yz          zz
 q only:       51.725       0.000      51.725       0.000      -0.000    -103.450
  q+dip:       62.632       0.000      62.632       0.000      -0.000    -125.265
   full:       63.594       0.000      63.594       0.000      -0.000    -127.187
 SCC converged in                     14  cycles
 
SCC energy    :    -152.9865966
rep           :       1.4088253
ES            :       0.0021891
AES           :       0.0168342
disp          :      -0.1123041
XB            :       0.0000000
fix           :       0.0000000
total E       :    -151.6900754
atomizationE  :      19.6699578    12343.09
(atE without considerung molecular charge,
 total energy contains solvation terms)
H-L gap (eV)  :          5.0855
 
             =======================================
             |                                     |
             |    Approximate Normal Coordinate    |
             |   Rational Function Optimization    |
             |                                     |
             =======================================
Ref. for RF algo: F.Eckert, P.Pulay, H.-J.Werner
                  J.Comput.Chem. 18 (1997) 1473.
ANC idea implemented by S. Grimme in the 2000ers (unpublished)
restraining potential by S. Ehrlich.
dumping coords to <xtbopt.coord> and <xtbopt.log
 optlevel                         1
 Maxcycle                       365
 Maxmicro                        20
 Econv         1.000000000000000E-006
 Gconv         8.000000000000000E-004
 Maxdispl       1.00000000000000     
 Hlow          4.000000000000000E-003
 S6             20.0000000000000     
 Nvar                        213

generating ANC from model Hessian ...
 Shifting diagonal of input Hessian by   1.553873327365764E-003
 Lowest  eigenvalues of input Hessian
   -0.000000   -0.000000   -0.000000   -0.000000   -0.000000    0.000000
    0.004000    0.004640    0.004661    0.006063    0.006184    0.009951
    0.009951    0.010871    0.010871    0.012610    0.014573    0.014935
 Highest eigenvalues
    2.449336    2.450424    2.453388    2.454866    2.454866    2.459248
 
cpu  time for ANC gen    0.15 s
wall time for ANC gen    0.12 s
................................................................................
.............................. CYCLE    1 ......................................
................................................................................
  q data taken from xtbrestart
  CAMM data taken from xtbrestart
   1   -152.9865966 -0.152987E+03  0.275E-05    5.09       0.0  T
   2   -152.9865966 -0.493969E-10  0.146E-05    5.09     802.8  T
   3   -152.9865966 -0.101466E-10  0.744E-06    5.09    1572.6  T
speedup 11.98
cpu  time for SCC    1.39 s
wall time for SCC    0.12 s
speedup 12.23
cpu  time for grad    1.47 s
wall time for grad    0.12 s
 E :   -151.69007539  G :  0.091607    pred/act E change:  0.000D+00 -0.832D-10
Maxdispl :   0.1911   ||displ|| :   0.4006   Lambda : -0.202D-01
Largest |displ|/coords:  0.1911 (  49)  0.1805 (  73)  0.1779 (  11)
................................................................................
.............................. CYCLE    2 ......................................
................................................................................
   1   -153.0584448 -0.153058E+03  0.173E-01    5.23       0.0  T
   2   -153.0585883 -0.143484E-03  0.992E-02    5.21       1.0  T
   3   -153.0585301  0.581394E-04  0.444E-02    5.23       1.0  T
   4   -153.0586347 -0.104537E-03  0.777E-03    5.22       1.5  T
   5   -153.0586357 -0.982725E-06  0.383E-03    5.22       3.1  T
   6   -153.0586359 -0.182006E-06  0.163E-03    5.22       7.2  T
   7   -153.0586359 -0.428891E-07  0.595E-04    5.22      19.7  T
   8   -153.0586359 -0.670099E-08  0.178E-04    5.22      65.7  T
speedup 11.60
cpu  time for SCC    2.33 s
wall time for SCC    0.20 s
speedup 11.67
cpu  time for grad    1.19 s
wall time for grad    0.10 s
 E :   -151.70390028  G :  0.030238    pred/act E change:  0.000D+00 -0.138D-01
Maxdispl :   0.1558   ||displ|| :   0.3267   Lambda : -0.603D-02
Largest |displ|/coords:  0.1558 (  49)  0.1537 (  11)  0.1418 (  45)
................................................................................
.............................. CYCLE    3 ......................................
................................................................................
   1   -153.0939734 -0.153094E+03  0.162E-01    5.26       0.0  T
   2   -153.0940811 -0.107758E-03  0.895E-02    5.25       1.0  T
   3   -153.0940832 -0.211132E-05  0.198E-02    5.26       1.0  T
   4   -153.0940979 -0.146532E-04  0.717E-03    5.25       1.6  T
   5   -153.0940990 -0.107860E-05  0.280E-03    5.26       4.2  T
   6   -153.0940991 -0.178704E-06  0.153E-03    5.26       7.7  T
   7   -153.0940992 -0.325909E-07  0.406E-04    5.26      28.8  T
   8   -153.0940992 -0.570293E-08  0.162E-04    5.26      72.0  T
speedup 11.92
cpu  time for SCC    2.04 s
wall time for SCC    0.17 s
speedup 11.92
cpu  time for grad    1.20 s
wall time for grad    0.10 s
 E :   -151.70741263  G :  0.012946    pred/act E change: -0.117D-01 -0.351D-02
Maxdispl :   0.0593   ||displ|| :   0.1094   Lambda : -0.417D-03
Largest |displ|/coords:  0.0593 (  11)  0.0526 (  29)  0.0485 (  20)
................................................................................
.............................. CYCLE    4 ......................................
................................................................................
   1   -153.0958305 -0.153096E+03  0.440E-02    5.24       0.0  T
   2   -153.0958442 -0.137309E-04  0.236E-02    5.24       1.0  T
   3   -153.0958447 -0.487134E-06  0.615E-03    5.24       1.9  T
   4   -153.0958459 -0.119792E-05  0.241E-03    5.25       4.9  T
   5   -153.0958461 -0.189240E-06  0.766E-04    5.24      15.3  T
   6   -153.0958461 -0.208528E-07  0.382E-04    5.25      30.6  T
   7   -153.0958461 -0.124405E-08  0.138E-04    5.25      85.0  T
speedup 11.42
cpu  time for SCC    1.98 s
wall time for SCC    0.17 s
speedup 11.84
cpu  time for grad    1.20 s
wall time for grad    0.10 s
 E :   -151.70764720  G :  0.003010    pred/act E change: -0.334D-02 -0.235D-03
Maxdispl :   0.0270   ||displ|| :   0.0334   Lambda : -0.298D-04
Largest |displ|/coords:  0.0270 (  20)  0.0156 (  11)  0.0098 (  45)
................................................................................
.............................. CYCLE    5 ......................................
................................................................................
   1   -153.0953709 -0.153095E+03  0.944E-03    5.24       0.0  T
   2   -153.0953717 -0.786344E-06  0.498E-03    5.24       2.4  T
   3   -153.0953717 -0.557116E-07  0.150E-03    5.24       7.8  T
   4   -153.0953718 -0.350323E-07  0.425E-04    5.24      27.5  T
   5   -153.0953718 -0.332216E-08  0.119E-04    5.24      98.2  T
   6   -153.0953718 -0.531116E-09  0.502E-05    5.24     233.4  T
speedup 11.87
cpu  time for SCC    1.84 s
wall time for SCC    0.16 s
speedup 11.75
cpu  time for grad    1.40 s
wall time for grad    0.12 s
 E :   -151.70766672  G :  0.000999    pred/act E change: -0.211D-03 -0.195D-04
Maxdispl :   0.0224   ||displ|| :   0.0262   Lambda : -0.872D-05
Largest |displ|/coords:  0.0224 (  20)  0.0108 (  11)  0.0073 (  29)
................................................................................
.............................. CYCLE    6 ......................................
................................................................................
   1   -153.0950139 -0.153095E+03  0.458E-03    5.24       0.0  T
   2   -153.0950140 -0.162400E-06  0.261E-03    5.24       4.5  T
   3   -153.0950140 -0.266311E-09  0.889E-04    5.24      13.2  T
   4   -153.0950140 -0.190100E-07  0.225E-04    5.24      51.9  T
   5   -153.0950140 -0.159193E-08  0.961E-05    5.24     121.8  T
   6   -153.0950140 -0.451621E-09  0.263E-05    5.24     444.7  T
speedup 11.59
cpu  time for SCC    1.87 s
wall time for SCC    0.16 s
speedup 11.71
cpu  time for grad    1.37 s
wall time for grad    0.12 s
 E :   -151.70767212  G :  0.000594    pred/act E change: -0.149D-04 -0.540D-05
Maxdispl :   0.0104   ||displ|| :   0.0122   Lambda : -0.174D-05
Largest |displ|/coords:  0.0104 (  20)  0.0047 (  29)  0.0038 (  11)
................................................................................
.............................. CYCLE    7 ......................................
................................................................................
   1   -153.0950712 -0.153095E+03  0.201E-03    5.24       0.0  T
   2   -153.0950712 -0.433533E-08  0.121E-03    5.24       9.6  T
   3   -153.0950712  0.172093E-09  0.145E-04    5.24      81.0  T
   4   -153.0950712 -0.101005E-08  0.430E-05    5.24     272.5  T
speedup 11.99
cpu  time for SCC    1.42 s
wall time for SCC    0.12 s
speedup 11.26
cpu  time for grad    1.35 s
wall time for grad    0.12 s
 E :   -151.70767325  G :  0.000368    pred/act E change: -0.436D-05 -0.113D-05
Maxdispl :   0.0044   ||displ|| :   0.0052   Lambda : -0.456D-06
Largest |displ|/coords:  0.0044 (  20)  0.0019 (  29)  0.0011 (  45)
................................................................................
.............................. CYCLE    8 ......................................
................................................................................
   1   -153.0951578 -0.153095E+03  0.108E-03    5.24       0.0  T
   2   -153.0951579 -0.698378E-08  0.632E-04    5.24      18.5  T
   3   -153.0951579  0.172776E-08  0.253E-04    5.24      46.3  T
   4   -153.0951579 -0.293488E-08  0.490E-05    5.24     238.8  T
   5   -153.0951579 -0.928537E-10  0.189E-05    5.24     619.4  T
speedup 11.57
cpu  time for SCC    1.56 s
wall time for SCC    0.14 s
speedup 12.21
cpu  time for grad    1.57 s
wall time for grad    0.13 s
 E :   -151.70767352  G :  0.000163    pred/act E change: -0.868D-06 -0.272D-06
Maxdispl :   0.0005   ||displ|| :   0.0009   Lambda : -0.511D-07
Largest |displ|/coords:  0.0005 (  20)  0.0004 (  11)  0.0004 (  49)
ancopt converged in          8 cycles
total energy gain (kcal):    -11.0430
================
 final structure:
================
    73
       -151.70767352
C          -3.17020577278577   -1.60954212440512    0.00000000072548
C           1.60954212444051   -3.17020577403764   -0.00000000019749
C           3.17020577129705    1.60954212494003   -0.00000000039401
C          -1.60954212621209    3.17020577402533    0.00000000030896
C          -3.55375072092373   -0.10529520209207    0.00000000007125
C           0.10529520186605   -3.55375072224731    0.00000000022646
C           3.55375071909938    0.10529520244960    0.00000000011339
C          -0.10529520353446    3.55375072177267    0.00000000014661
N          -2.97318713526206    0.38477283330529   -1.21964601607010
N          -0.38477283402373   -2.97318713689680   -1.21964601476200
N           2.97318713185461   -0.38477283352129   -1.21964601409901
N           0.38477283191668    2.97318713590604    1.21964601467954
N          -2.97318713409977    0.38477283398635    1.21964601461678
N          -0.38477283399804   -2.97318713484542    1.21964601481164
N           2.97318713381168   -0.38477283308157    1.21964601582847
N           0.38477283239567    2.97318713446152   -1.21964601489790
N          -2.42593032758587   -1.76178851878714   -1.21969241005123
N           1.76178851899648   -2.42593033081047   -1.21969241081926
N           2.42593032772851    1.76178851964130   -1.21969241119081
N          -1.76178852125953    2.42593033068814    1.21969241070908
N          -2.42593032890750   -1.76178851887817    1.21969241114956
N           1.76178851811000   -2.42593032819847    1.21969240937805
N           2.42593032670313    1.76178851933526    1.21969240960057
N          -1.76178852042130    2.42593032857817   -1.21969240978954
C          -2.44427516984835   -0.62340283258067   -1.99754256010080
C           0.62340283087890   -2.44427516562159   -1.99754256062471
C           2.44427516666644    0.62340283257891   -1.99754256125025
C          -0.62340283314506    2.44427516648667    1.99754256099023
C          -2.44427516829360   -0.62340283169755    1.99754256120638
C           0.62340283077525   -2.44427516391953    1.99754255880465
C           2.44427516695596    0.62340283289120    1.99754256109879
C          -0.62340283267532    2.44427516547567   -1.99754255854784
O          -2.10756194177695   -0.53753841728858   -3.14180466773841
O           0.53753841239387   -2.10756193168269   -3.14180466517391
O           2.10756193916534    0.53753841536223   -3.14180466832423
O          -0.53753841522769    2.10756193393848    3.14180466590420
O          -2.10756194028767   -0.53753841445821    3.14180466769527
O           0.53753841324240   -2.10756192877473    3.14180466361797
O           2.10756193866054    0.53753841774451    3.14180466791365
O          -0.53753841540915    2.10756193150796   -3.14180466387550
C          -2.95179172432405    1.75211472555390   -1.66018744467400
C          -1.75211472618148   -2.95179172373301   -1.66018744415983
C           2.95179172221930   -1.75211472548432   -1.66018744466412
C           1.75211472382730    2.95179172348589    1.66018744497014
C          -2.95179172462244    1.75211472630943    1.66018744408331
C          -1.75211472618571   -2.95179172336664    1.66018744425790
C           2.95179172253107   -1.75211472527671    1.66018744400997
C           1.75211472460539    2.95179172387493   -1.66018744394677
H          -3.84760392213931    2.28377920456570   -1.31858298872591
H          -2.28377920658740   -3.84760392062779   -1.31858298812772
H           3.84760392069599   -2.28377920387505   -1.31858298894502
H           2.28377920390165    3.84760392121447    1.31858299021522
H          -3.84760392281136    2.28377920434037    1.31858298716615
H          -2.28377920573595   -3.84760392060419    1.31858298710340
H           3.84760392010576   -2.28377920463434    1.31858298706611
H           2.28377920344680    3.84760392145416   -1.31858298625006
H          -2.89585405253409    1.71890634020145   -2.75719171978261
H          -1.71890634063177   -2.89585405215027   -2.75719171905213
H           2.89585405110389   -1.71890633900002   -2.75719171931428
H           1.71890633774031    2.89585405047310    2.75719171963319
H          -2.89585405471693    1.71890634063862    2.75719171908694
H          -1.71890634098014   -2.89585405370044    2.75719171942411
H           2.89585405203691   -1.71890634091411    2.75719171913966
H           1.71890633980693    2.89585405501873   -2.75719171919381
H          -4.64793396228074    0.06650433685259    0.00000000026683
H          -0.06650433708829   -4.64793396374968    0.00000000060529
H           4.64793396083595   -0.06650433670865   -0.00000000044362
H           0.06650433577587    4.64793396316625   -0.00000000031467
H          -4.04855488397714   -2.28427083462416    0.00000000002784
H           2.28427083468243   -4.04855488523056    0.00000000022276
H           4.04855488307132    2.28427083504042   -0.00000000018627
H          -2.28427083603676    4.04855488575487   -0.00000000018030
AR          0.00000006916590   -0.00000001551529   -0.00000000100770
 
 Bond Distances (Angstroems)
 ---------------------------
C1-C5=1.5524         C1-N17=1.4369        C1-N21=1.4369        C1-H69=1.1076        C2-C6=1.5524         C2-N18=1.4369        
C2-N22=1.4369        C2-H70=1.1076        C3-C7=1.5524         C3-N19=1.4369        C3-N23=1.4369        C3-H71=1.1076        
C4-C8=1.5524         C4-N20=1.4369        C4-N24=1.4369        C4-H72=1.1076        C5-C1=1.5524         C5-N9=1.4369         
C5-N13=1.4369        C5-H65=1.1076        C6-C2=1.5524         C6-N10=1.4369        C6-N14=1.4369        C6-H66=1.1076        
C7-C3=1.5524         C7-N11=1.4369        C7-N15=1.4369        C7-H67=1.1076        C8-C4=1.5524         C8-N12=1.4369        
C8-N16=1.4369        C8-H68=1.1076        N9-C5=1.4369         N9-C25=1.3789        N9-C41=1.4367        N10-C6=1.4369        
N10-C26=1.3789       N10-C42=1.4367       N11-C7=1.4369        N11-C27=1.3789       N11-C43=1.4367       N12-C8=1.4369        
N12-C28=1.3789       N12-C44=1.4367       N13-C5=1.4369        N13-C29=1.3789       N13-C45=1.4367       N14-C6=1.4369        
N14-C30=1.3789       N14-C46=1.4367       N15-C7=1.4369        N15-C31=1.3789       N15-C47=1.4367       N16-C8=1.4369        
N16-C32=1.3789       N16-C48=1.4367       N17-C1=1.4369        N17-C25=1.3789       N17-C42=1.4367       N18-C2=1.4369        
N18-C26=1.3789       N18-C43=1.4367       N19-C3=1.4369        N19-C27=1.3789       N19-C48=1.4367       N20-C4=1.4369        
N20-C28=1.3789       N20-C45=1.4367       N21-C1=1.4369        N21-C29=1.3789       N21-C46=1.4367       N22-C2=1.4369        
N22-C30=1.3789       N22-C47=1.4367       N23-C3=1.4369        N23-C31=1.3789       N23-C44=1.4367       N24-C4=1.4369        
N24-C32=1.3789       N24-C41=1.4367       C25-N9=1.3789        C25-N17=1.3789       C25-O33=1.1959       C26-N10=1.3789       
C26-N18=1.3789       C26-O34=1.1959       C27-N11=1.3789       C27-N19=1.3789       C27-O35=1.1959       C28-N12=1.3789       
C28-N20=1.3789       C28-O36=1.1959       C29-N13=1.3789       C29-N21=1.3789       C29-O37=1.1959       C30-N14=1.3789       
C30-N22=1.3789       C30-O38=1.1959       C31-N15=1.3789       C31-N23=1.3789       C31-O39=1.1959       C32-N16=1.3789       
C32-N24=1.3789       C32-O40=1.1959       O33-C25=1.1959       O34-C26=1.1959       O35-C27=1.1959       O36-C28=1.1959       
O37-C29=1.1959       O38-C30=1.1959       O39-C31=1.1959       O40-C32=1.1959       C41-N9=1.4367        C41-N24=1.4367       
C41-H49=1.0963       C41-H57=1.0989       C42-N10=1.4367       C42-N17=1.4367       C42-H50=1.0963       C42-H58=1.0989       
C43-N11=1.4367       C43-N18=1.4367       C43-H51=1.0963       C43-H59=1.0989       C44-N12=1.4367       C44-N23=1.4367       
C44-H52=1.0963       C44-H60=1.0989       C45-N13=1.4367       C45-N20=1.4367       C45-H53=1.0963       C45-H61=1.0989       
C46-N14=1.4367       C46-N21=1.4367       C46-H54=1.0963       C46-H62=1.0989       C47-N15=1.4367       C47-N22=1.4367       
C47-H55=1.0963       C47-H63=1.0989       C48-N16=1.4367       C48-N19=1.4367       C48-H56=1.0963       C48-H64=1.0989       
H49-C41=1.0963       H50-C42=1.0963       H51-C43=1.0963       H52-C44=1.0963       H53-C45=1.0963       H54-C46=1.0963       
H55-C47=1.0963       H56-C48=1.0963       H57-C41=1.0989       H58-C42=1.0989       H59-C43=1.0989       H60-C44=1.0989       
H61-C45=1.0989       H62-C46=1.0989       H63-C47=1.0989       H64-C48=1.0989       H65-C5=1.1076        H66-C6=1.1076        
H67-C7=1.1076        H68-C8=1.1076        H69-C1=1.1076        H70-C2=1.1076        H71-C3=1.1076        H72-C4=1.1076        
 C  H  Rav=1.1009 sigma=0.0048  Rmin=1.0963  Rmax=1.1076    24
 C  C  Rav=1.5524 sigma=0.0000  Rmin=1.5524  Rmax=1.5524     4
 N  C  Rav=1.4175 sigma=0.0273  Rmin=1.3789  Rmax=1.4369    48
 O  C  Rav=1.1959 sigma=0.0000  Rmin=1.1959  Rmax=1.1959     8
 
 selected bond angles (degree)
 --------------------
N17-C1-C5=103.33               N21-C1-C5=103.33               N21-C1-N17=116.17              H69-C1-C5=113.23               
H69-C1-N17=110.26              H69-C1-N21=110.26              N18-C2-C6=103.33               N22-C2-C6=103.33               
N22-C2-N18=116.17              H70-C2-C6=113.23               H70-C2-N18=110.26              H70-C2-N22=110.26              
N19-C3-C7=103.33               N23-C3-C7=103.33               N23-C3-N19=116.17              H71-C3-C7=113.23               
H71-C3-N19=110.26              H71-C3-N23=110.26              N20-C4-C8=103.33               N24-C4-C8=103.33               
N24-C4-N20=116.17              H72-C4-C8=113.23               H72-C4-N20=110.26              H72-C4-N24=110.26              
N9-C5-C1=103.34                N13-C5-C1=103.34               N13-C5-N9=116.16               H65-C5-C1=113.23               
H65-C5-N9=110.26               H65-C5-N13=110.26              N10-C6-C2=103.34               N14-C6-C2=103.34               
N14-C6-N10=116.16              H66-C6-C2=113.23               H66-C6-N10=110.26              H66-C6-N14=110.26              
N11-C7-C3=103.34               N15-C7-C3=103.34               N15-C7-N11=116.16              H67-C7-C3=113.23               
H67-C7-N11=110.26              H67-C7-N15=110.26              N12-C8-C4=103.34               N16-C8-C4=103.34               
N16-C8-N12=116.16              H68-C8-C4=113.23               H68-C8-N12=110.26              H68-C8-N16=110.26              
C25-N9-C5=112.61               C41-N9-C5=126.22               C41-N9-C25=121.14              C26-N10-C6=112.61              
C42-N10-C6=126.22              C42-N10-C26=121.14             
 
 selected dihedral angles (degree)
 ---------------------------------
N9-C5-C1-N17=  0.00           N9-C5-C1-N21=121.46           N9-C5-C1-H69=240.73           N13-C5-C1-N17=238.54          
N13-C5-C1-N21=  0.00          N13-C5-C1-H69=119.27          H65-C5-C1-N17=119.27          H65-C5-C1-N21=240.73          
H65-C5-C1-H69=  0.00          N10-C6-C2-N18=  0.00          N10-C6-C2-N22=121.46          N10-C6-C2-H70=240.73          
N14-C6-C2-N18=238.54          N14-C6-C2-N22=  0.00          N14-C6-C2-H70=119.27          H66-C6-C2-N18=119.27          
H66-C6-C2-N22=240.73          H66-C6-C2-H70=  0.00          N11-C7-C3-N19=  0.00          N11-C7-C3-N23=121.46          
N11-C7-C3-H71=240.73          N15-C7-C3-N19=238.54          N15-C7-C3-N23=  0.00          N15-C7-C3-H71=119.27          
H67-C7-C3-N19=119.27          H67-C7-C3-N23=240.73          H67-C7-C3-H71=  0.00          N12-C8-C4-N20=  0.00          
N12-C8-C4-N24=238.54          N12-C8-C4-H72=119.27          N16-C8-C4-N20=121.46          N16-C8-C4-N24=  0.00          
N16-C8-C4-H72=240.73          H68-C8-C4-N20=240.73          H68-C8-C4-N24=119.27          H68-C8-C4-H72=  0.00          
C25-N9-C5-C1=  6.79           C25-N9-C5-N13=119.16          C25-N9-C5-H65=245.49          C41-N9-C5-C1=184.82           
C41-N9-C5-N13=297.19          C41-N9-C5-H65= 63.52          C26-N10-C6-C2=  6.79          C26-N10-C6-N14=119.16         
C26-N10-C6-H66=245.49         C42-N10-C6-C2=184.82          C42-N10-C6-N14=297.19         C42-N10-C6-H66= 63.52         
 
 CMA Distance (Angstroems)
 ---------------------------
R(CMA):  0.0000
 
             =======================================
             |                                     |
             |        S C C  calculation           |
             |                                     |
             =======================================
 #proc     :                      1
 Ncao      :                    226
 Nao       :                    225
 Nel       :                    256
 T(el)     :   300.0
 intcut    :    25.0
 scfconv   :  0.100E-05
   qconv   :  0.200E-04
 intneglect:  0.100E-07
 broydamp  :      0.400
 Nshell    :                    123
 iter      E             dE          RMSdq      gap      omega  full diag
   1   -153.0951579 -0.153095E+03  0.695E-06    5.24       0.0  T
   2   -153.0951579 -0.179057E-11  0.359E-06    5.24    3256.8  T
   3   -153.0951579 -0.568434E-12  0.187E-06    5.24    6245.4  T
speedup 12.20
cpu  time for SCC    1.43 s
wall time for SCC    0.12 s

          eigenvalues
 #    :         116        117        118        119        120        121        122        123
 occ. :        2.000      2.000      2.000      2.000      2.000      2.000      2.000      2.000
 eps  :       -10.368    -10.354    -10.354    -10.302    -10.279    -10.193    -10.124    -10.107
 #    :         124        125        126        127        128        129        130        131
 occ. :        2.000      2.000      2.000      2.000      2.000      0.000      0.000      0.000
 eps  :       -10.107    -10.083    -10.083    -10.025     -9.927     -4.683     -4.602     -4.466
 #    :         132        133        134        135        136        137        138        139
 occ. :        0.000      0.000      0.000      0.000      0.000      0.000      0.000      0.000
 eps  :        -4.466     -4.414     -4.414     -4.348     -4.192     -1.017     -1.006     -0.928
 
 
 Mulliken/CM5 charges        n(s)   n(p)   n(d)
     1 C   0.06791  0.14929   1.078  2.854  0.000
     2 C   0.06791  0.14929   1.078  2.854  0.000
     3 C   0.06791  0.14929   1.078  2.854  0.000
     4 C   0.06791  0.14929   1.078  2.854  0.000
     5 C   0.06791  0.14930   1.078  2.854  0.000
     6 C   0.06791  0.14930   1.078  2.854  0.000
     7 C   0.06791  0.14930   1.078  2.854  0.000
     8 C   0.06791  0.14930   1.078  2.854  0.000
     9 N  -0.03442 -0.27507   1.125  3.910  0.000
    10 N  -0.03442 -0.27507   1.125  3.910  0.000
    11 N  -0.03442 -0.27507   1.125  3.910  0.000
    12 N  -0.03442 -0.27507   1.125  3.910  0.000
    13 N  -0.03442 -0.27507   1.125  3.910  0.000
    14 N  -0.03442 -0.27507   1.125  3.910  0.000
    15 N  -0.03442 -0.27507   1.125  3.910  0.000
    16 N  -0.03442 -0.27507   1.125  3.910  0.000
    17 N  -0.03443 -0.27507   1.125  3.910  0.000
    18 N  -0.03443 -0.27507   1.125  3.910  0.000
    19 N  -0.03443 -0.27507   1.125  3.910  0.000
    20 N  -0.03443 -0.27507   1.125  3.910  0.000
    21 N  -0.03443 -0.27507   1.125  3.910  0.000
    22 N  -0.03443 -0.27507   1.125  3.910  0.000
    23 N  -0.03443 -0.27507   1.125  3.910  0.000
    24 N  -0.03443 -0.27507   1.125  3.910  0.000
    25 C   0.23406  0.40728   1.052  2.714  0.000
    26 C   0.23406  0.40728   1.052  2.714  0.000
    27 C   0.23406  0.40728   1.052  2.714  0.000
    28 C   0.23406  0.40728   1.052  2.714  0.000
    29 C   0.23406  0.40728   1.052  2.714  0.000
    30 C   0.23406  0.40728   1.052  2.714  0.000
    31 C   0.23406  0.40728   1.052  2.714  0.000
    32 C   0.23406  0.40728   1.052  2.714  0.000
    33 O  -0.39961 -0.44177   1.725  4.674  0.000
    34 O  -0.39961 -0.44177   1.725  4.674  0.000
    35 O  -0.39961 -0.44177   1.725  4.674  0.000
    36 O  -0.39961 -0.44177   1.725  4.674  0.000
    37 O  -0.39961 -0.44177   1.725  4.674  0.000
    38 O  -0.39961 -0.44177   1.725  4.674  0.000
    39 O  -0.39961 -0.44177   1.725  4.674  0.000
    40 O  -0.39961 -0.44177   1.725  4.674  0.000
    41 C   0.03208  0.05836   1.072  2.896  0.000
    42 C   0.03208  0.05836   1.072  2.896  0.000
    43 C   0.03208  0.05836   1.072  2.896  0.000
    44 C   0.03208  0.05836   1.072  2.896  0.000
    45 C   0.03208  0.05836   1.072  2.896  0.000
    46 C   0.03208  0.05836   1.072  2.896  0.000
    47 C   0.03208  0.05836   1.072  2.896  0.000
    48 C   0.03208  0.05836   1.072  2.896  0.000
    49 H   0.03530  0.11166   0.965  0.000  0.000
    50 H   0.03530  0.11166   0.965  0.000  0.000
    51 H   0.03530  0.11166   0.965  0.000  0.000
    52 H   0.03530  0.11166   0.965  0.000  0.000
    53 H   0.03530  0.11166   0.965  0.000  0.000
    54 H   0.03530  0.11166   0.965  0.000  0.000
    55 H   0.03530  0.11166   0.965  0.000  0.000
    56 H   0.03530  0.11166   0.965  0.000  0.000
    57 H   0.07382  0.16231   0.926  0.000  0.000
    58 H   0.07382  0.16231   0.926  0.000  0.000
    59 H   0.07382  0.16231   0.926  0.000  0.000
    60 H   0.07382  0.16231   0.926  0.000  0.000
    61 H   0.07382  0.16231   0.926  0.000  0.000
    62 H   0.07382  0.16231   0.926  0.000  0.000
    63 H   0.07382  0.16231   0.926  0.000  0.000
    64 H   0.07382  0.16231   0.926  0.000  0.000
    65 H   0.02536  0.10317   0.975  0.000  0.000
    66 H   0.02536  0.10317   0.975  0.000  0.000
    67 H   0.02536  0.10317   0.975  0.000  0.000
    68 H   0.02536  0.10317   0.975  0.000  0.000
    69 H   0.02537  0.10318   0.975  0.000  0.000
    70 H   0.02537  0.10318   0.975  0.000  0.000
    71 H   0.02537  0.10318   0.975  0.000  0.000
    72 H   0.02537  0.10318   0.975  0.000  0.000
    73 AR -0.00063 -0.00137   2.000  5.993  0.007
 
 Wiberg/Mayer (AO) data. WBOs > 0.1 written file <wbo>
 largest (>0.05) Wiberg bond orders for each atom
           total WBO             WBO to atom ...
     1  C   3.978    N   21 0.995    N   17 0.995    C    5 0.957    H   69 0.948
     2  C   3.978    N   18 0.995    N   22 0.995    C    6 0.957    H   70 0.948
     3  C   3.978    N   23 0.995    N   19 0.995    C    7 0.957    H   71 0.948
     4  C   3.978    N   20 0.995    N   24 0.995    C    8 0.957    H   72 0.948
     5  C   3.978    N   13 0.995    N    9 0.995    C    1 0.957    H   65 0.948
     6  C   3.978    N   10 0.995    N   14 0.995    C    2 0.957    H   66 0.948
     7  C   3.978    N   11 0.995    N   15 0.995    C    3 0.957    H   67 0.948
     8  C   3.978    N   12 0.995    N   16 0.995    C    4 0.957    H   68 0.948
     9  N   3.418    C   25 1.100    C   41 0.997    C    5 0.995    O   33 0.150
    10  N   3.418    C   26 1.100    C   42 0.997    C    6 0.995    O   34 0.150
    11  N   3.418    C   27 1.100    C   43 0.997    C    7 0.995    O   35 0.150
    12  N   3.418    C   28 1.100    C   44 0.997    C    8 0.995    O   36 0.150
    13  N   3.418    C   29 1.100    C   45 0.997    C    5 0.995    O   37 0.150
    14  N   3.418    C   30 1.100    C   46 0.997    C    6 0.995    O   38 0.150
    15  N   3.418    C   31 1.100    C   47 0.997    C    7 0.995    O   39 0.150
    16  N   3.418    C   32 1.100    C   48 0.997    C    8 0.995    O   40 0.150
    17  N   3.418    C   25 1.100    C   42 0.997    C    1 0.995    O   33 0.150
    18  N   3.418    C   26 1.100    C   43 0.997    C    2 0.995    O   34 0.150
    19  N   3.418    C   27 1.100    C   48 0.997    C    3 0.995    O   35 0.150
    20  N   3.418    C   28 1.100    C   45 0.997    C    4 0.995    O   36 0.150
    21  N   3.418    C   29 1.100    C   46 0.997    C    1 0.995    O   37 0.150
    22  N   3.418    C   30 1.100    C   47 0.997    C    2 0.995    O   38 0.150
    23  N   3.418    C   31 1.100    C   44 0.997    C    3 0.995    O   39 0.150
    24  N   3.418    C   32 1.100    C   41 0.997    C    4 0.995    O   40 0.150
    25  C   3.966    O   33 1.702    N    9 1.100    N   17 1.100
    26  C   3.966    O   34 1.702    N   10 1.100    N   18 1.100
    27  C   3.966    O   35 1.702    N   11 1.100    N   19 1.100
    28  C   3.966    O   36 1.702    N   12 1.100    N   20 1.100
    29  C   3.966    O   37 1.702    N   13 1.100    N   21 1.100
    30  C   3.966    O   38 1.702    N   14 1.100    N   22 1.100
    31  C   3.966    O   39 1.702    N   15 1.100    N   23 1.100
    32  C   3.966    O   40 1.702    N   16 1.100    N   24 1.100
    33  O   2.061    C   25 1.702    N    9 0.150    N   17 0.150
    34  O   2.061    C   26 1.702    N   10 0.150    N   18 0.150
    35  O   2.061    C   27 1.702    N   11 0.150    N   19 0.150
    36  O   2.061    C   28 1.702    N   12 0.150    N   20 0.150
    37  O   2.061    C   29 1.702    N   13 0.150    N   21 0.150
    38  O   2.061    C   30 1.702    N   14 0.150    N   22 0.150
    39  O   2.061    C   31 1.702    N   15 0.150    N   23 0.150
    40  O   2.061    C   32 1.702    N   16 0.150    N   24 0.150
    41  C   3.969    N    9 0.997    N   24 0.997    H   49 0.965    H   57 0.957
    42  C   3.969    N   10 0.997    N   17 0.997    H   50 0.965    H   58 0.957
    43  C   3.969    N   11 0.997    N   18 0.997    H   51 0.965    H   59 0.957
    44  C   3.969    N   12 0.997    N   23 0.997    H   52 0.965    H   60 0.957
    45  C   3.969    N   13 0.997    N   20 0.997    H   53 0.965    H   61 0.957
    46  C   3.969    N   14 0.997    N   21 0.997    H   54 0.965    H   62 0.957
    47  C   3.969    N   15 0.997    N   22 0.997    H   55 0.965    H   63 0.957
    48  C   3.969    N   16 0.997    N   19 0.997    H   56 0.965    H   64 0.957
    49  H   0.998    C   41 0.965
    50  H   0.998    C   42 0.965
    51  H   0.998    C   43 0.965
    52  H   0.998    C   44 0.965
    53  H   0.998    C   45 0.965
    54  H   0.998    C   46 0.965
    55  H   0.998    C   47 0.965
    56  H   0.998    C   48 0.965
    57  H   0.994    C   41 0.957
    58  H   0.994    C   42 0.957
    59  H   0.994    C   43 0.957
    60  H   0.994    C   44 0.957
    61  H   0.994    C   45 0.957
    62  H   0.994    C   46 0.957
    63  H   0.994    C   47 0.957
    64  H   0.994    C   48 0.957
    65  H   0.999    C    5 0.948
    66  H   0.999    C    6 0.948
    67  H   0.999    C    7 0.948
    68  H   0.999    C    8 0.948
    69  H   0.999    C    1 0.948
    70  H   0.999    C    2 0.948
    71  H   0.999    C    3 0.948
    72  H   0.999    C    4 0.948
    73  AR  0.028
 density
 
 cube file module (SG, 7/16)
 cube_pthr     :   0.005
 cube_step     :   0.400
 non-zero P (%):  30.439   nmat:    7808
 Grid Boundaries (x y z) :
   11.7833214164115        11.7833214208151        8.93714980857955     
  -11.7833214191417       -11.7833214219176       -8.93714980935544     
 Total # of points                156645
 writing density.cub
 N    (numint) : ******
cpu  time for cube   35.50 s
wall time for cube   33.46 s
 
molecular dipole:
                 x           y           z       tot (Debye)
 q only:       -0.000       0.000       0.000
   full:        0.000       0.000       0.000       0.000
molecular quadrupole (traceless):
                xx          xy          yy          xz          yz          zz
 q only:       50.799      -0.000      50.799      -0.000       0.000    -101.597
  q+dip:       62.717      -0.000      62.717      -0.000      -0.000    -125.435
   full:       63.606      -0.000      63.606      -0.000      -0.000    -127.213
 SCC converged in                      3  cycles
 
SCC energy    :    -153.0951579
rep           :       1.5022331
ES            :      -0.0043420
AES           :       0.0137743
disp          :      -0.1147488
XB            :       0.0000000
fix           :       0.0000000
total E       :    -151.7076735
atomizationE  :      19.6875559    12354.13
(atE without considerung molecular charge,
 total energy contains solvation terms)
H-L gap (eV)  :          5.2438
 !!!!!!!!!!!!!!!!!!!!!!!!!!!!!!!!!!!
 ! Note: the input coordinates are !
 ! NOT overwritten. The optimized  !
 ! ones are on file <xtbopt.coord> !
 ! (or on <xtbopt.xyz> if it was a !
 ! xyz file)                       !
 !!!!!!!!!!!!!!!!!!!!!!!!!!!!!!!!!!!
 
speedup  1.43
cpu  time for all    1 m 41.4 s
wall time for all    1 m 10.7 s
