 
        ______________________________________
       |                                      |
       |           ==================         |
       |                 x T B                |
       |           ==================         |
       |               S. Grimme              |
       |        Universitaet Bonn, MCTC       |
       |         2015-18, Version 5.0         |
       |      Sat Jan 20 11:00:33 CET 2018    |
       |______________________________________|
 
        This code comes without any warranty
        for non-commercial, academia use only.
        Cite GFN-xTB work as:
        S. Grimme, C. Bannwarth, P. Shushkov
        JCTC, 13 (2017) 1989-2009
        for GFN2:
        C. Bannwarth, S. Ehlert, S. Grimme
        to be published.
        sTDA-xTB:
        S. Grimme  &  C. Bannwarth, JCP 145 (2016) 054103
        in the mass-spec context additionally:
        V. Asgeirsson, C.Bauer, S. Grimme, Chem. Sci. 8 (2017) 4879
 
        with help from
        P. Shushkov, G. Brandenburg, S. Dohm, J. Pisarek,
        F. März, M. Checinski, S. Ehrlich, S. Spicher, 
        P. Pracht, E. Caldeweyher, S. Ehlert, and C. Bannwarth.
 
        usage        :
        xtb <coord_file> [options]
        where <coord_file> is a valid file of TM)
        (*coord, Bohr) or xmol (*xyz, Angstroem)
        format.

        options:
        -chrg <int>   : molecular charge
        -uhf  <int>   : # of unpaired electrons(=2*S)
        -nox          : skip second, extended part in sTDA-xTB
        -pop          : do population analysis
                      : (default for -nox)
        -mowr <real>  : cut MO write above (def.3 Eh)
        -molden       : write formatted molden file
        -parx <file>  : read parameters for sTDA-xTB
                        calc (def:~/.param_stda2.xtb)
        -parv <file>  : read parameters for vTB part in
                        sTDA-xTB (def: ~/.param_stda1.xtb)
        -xtemp <real> : el. temp for xTB (def. 0 K)
        -etemp <real> : el. temp for GFN (def. 300 K)
        -fod          : do a xTB calc. of the FOD
                        and write molden.input file 
                        with appropriate occupations
                        for plotting. Def. T=12500 K
 
        -gfn          : use GFN-xTB
        -grad         : GFN-xTB gradient
        -acc <real>   : GFN-xTB accuracy (def. 1.0)
        -opt [level]  : optimize at GFN-xTB
                      : level=crude,vloose,loose,
                      :       tight,vtight
        -hess         : compute Hessian at GFN-xTB
        -ohess        : optimize and compute Hessian
        -omd          : optimize and do MD
        -siman        : conformational search
        -screen       : opt. loop over ensemble
        -gmd          : annealed MD for GMD procedure
        -modef        : vib mode following
        -gbsa [string1] [string2]
                        use GBSA implicit solvent
                        for solvent [string1] and
                        solvation state [string2]=
                        reference, bar1M (default=1M)
        additional GFN/opt/MD/siman options read from
        $XTBHOME/.xtbrc or $set in coordinate file
 
       spin and charge state information can be on:
       <.CHRG> (charge) and <.UHF> (=nalpha-nbeta)
       -uhf and -chrg override the file info.
       useful machine settings:
       setenv MKL_NUM_THREADS <NCORE_ON_YOUR_MACHINE>
       setenv OMP_STACKSIZE 500m
       limit stacksize unlimited
 
       total energies in Eh, gaps/HL energies in eV
       please read REVISION and HOWTO files carefully
 =============================
  # OMP threads =                     1
 =============================
 
 xtbhome directory:/Applications/xtb/
 
 argument                      1 :-chrg
 argument                      2 :-1
 argument                      3 :-opt
 argument                      4 :tight
 
 number of atoms            :    77
 number of electrons        :   256
 charge                     : -1
 spin                       : 0.0
 first test random number   :  0.7576
 
 
KAB for pair M(3d)-M(3d) :  1.1000
KAB for pair M(4d)-M(4d) :  1.2000
KAB for pair M(5d)-M(5d) :  1.2000
 -----------------------------------------
  G F N (Geometry, Frequency, Non-covalent)
        parametrization, version                     2
 /Applications/xtb/.param_gfn2.xtb
 -----------------------------------------
      method parameters     
 k(s)        :  1.8500
 k(p)        :  2.2500
 k(d)        :  2.0000
 k(f)        :  0.0000
 alphaj      :  1.0000
 kEN (H0ij)  : -2.3620
 D3 a1       :  0.6900
 D3 a2       :  4.0530
 D3 s8       :  2.0000
 D3atm       :  1.0000
 AESdamp     :  5.5000
 AESrad      :  1.9230
 expscalexp  : -0.2500
 
     -------------------------
     ! NO SOLVENT MODEL USED !
     -------------------------
 
 doing EN charges ...
 sum q : -0.1000000D+01
 point charge moment (au)
     X       Y       Z   
  -0.0000   0.0000   0.0000  total (Debye):    0.000
 
            Z      q(EN)   CN      Cart. coordinates
     1  C   4.0    0.19    4.29    -6.07154    -3.08730     0.00204
     2  C   4.0    0.19    4.29     3.08730    -6.07154    -0.00204
     3  C   4.0    0.19    4.29     6.07154     3.08730     0.00204
     4  C   4.0    0.19    4.29    -3.08730     6.07154    -0.00204
     5  C   4.0    0.20    4.30    -6.78705    -0.19062     0.00338
     6  C   4.0    0.20    4.30     0.19062    -6.78705    -0.00338
     7  C   4.0    0.20    4.30     6.78705     0.19062     0.00338
     8  C   4.0    0.20    4.30    -0.19062     6.78705    -0.00338
     9  N   5.0   -0.22    3.20    -5.78209     0.74300    -2.36414
    10  N   5.0   -0.22    3.21    -0.70058    -5.76355    -2.36463
    11  N   5.0   -0.22    3.20     5.78209    -0.74300    -2.36414
    12  N   5.0   -0.22    3.20     0.74300     5.78209     2.36414
    13  N   5.0   -0.22    3.21    -5.76355     0.70058     2.36463
    14  N   5.0   -0.22    3.20    -0.74300    -5.78209     2.36414
    15  N   5.0   -0.22    3.21     5.76355    -0.70058     2.36463
    16  N   5.0   -0.22    3.21     0.70058     5.76355    -2.36463
    17  N   5.0   -0.22    3.21    -4.65069    -3.36082    -2.31554
    18  N   5.0   -0.22    3.20     3.47075    -4.87304    -2.43778
    19  N   5.0   -0.22    3.21     4.65069     3.36082    -2.31554
    20  N   5.0   -0.22    3.21    -3.36082     4.65069     2.31554
    21  N   5.0   -0.22    3.20    -4.87304    -3.47075     2.43778
    22  N   5.0   -0.22    3.21     3.36082    -4.65069     2.31554
    23  N   5.0   -0.22    3.20     4.87304     3.47075     2.43778
    24  N   5.0   -0.22    3.20    -3.47075     4.87304    -2.43778
    25  C   4.0    0.42    3.26    -4.67775    -1.17620    -3.79827
    26  C   4.0    0.42    3.26     1.22280    -4.72594    -3.83762
    27  C   4.0    0.42    3.26     4.67775     1.17620    -3.79827
    28  C   4.0    0.42    3.26    -1.17620     4.67775     3.79827
    29  C   4.0    0.42    3.26    -4.72594    -1.22280     3.83762
    30  C   4.0    0.42    3.26     1.17620    -4.67775     3.79827
    31  C   4.0    0.42    3.26     4.72594     1.22280     3.83762
    32  C   4.0    0.42    3.26    -1.22280     4.72594    -3.83762
    33  O   6.0   -0.36    1.06    -4.03341    -1.02977    -5.98913
    34  O   6.0   -0.37    1.06     1.02943    -4.03213    -6.00413
    35  O   6.0   -0.36    1.06     4.03341     1.02977    -5.98913
    36  O   6.0   -0.36    1.06    -1.02977     4.03341     5.98913
    37  O   6.0   -0.37    1.06    -4.03213    -1.02943     6.00413
    38  O   6.0   -0.36    1.06     1.02977    -4.03341     5.98913
    39  O   6.0   -0.37    1.06     4.03213     1.02943     6.00413
    40  O   6.0   -0.37    1.06    -1.02943     4.03213    -6.00413
    41  C   4.0    0.23    4.13    -5.65415     3.36889    -3.17419
    42  C   4.0    0.23    4.14    -3.31464    -5.59786    -3.14312
    43  C   4.0    0.23    4.13     5.65415    -3.36889    -3.17419
    44  C   4.0    0.23    4.13     3.36889     5.65415     3.17419
    45  C   4.0    0.23    4.14    -5.59786     3.31464     3.14312
    46  C   4.0    0.23    4.13    -3.36889    -5.65415     3.17419
    47  C   4.0    0.23    4.14     5.59786    -3.31464     3.14312
    48  C   4.0    0.23    4.14     3.31464     5.59786    -3.14312
    49  H   1.0   -0.06    1.00    -7.35028     4.33624    -2.49391
    50  H   1.0   -0.06    1.00    -4.32309    -7.27716    -2.47051
    51  H   1.0   -0.06    1.00     7.35028    -4.33624    -2.49391
    52  H   1.0   -0.06    1.00     4.33624     7.35028     2.49391
    53  H   1.0   -0.06    1.00    -7.27716     4.32309     2.47051
    54  H   1.0   -0.06    1.00    -4.33624    -7.35028     2.49391
    55  H   1.0   -0.06    1.00     7.27716    -4.32309     2.47051
    56  H   1.0   -0.06    1.00     4.32309     7.27716    -2.47051
    57  H   1.0   -0.06    1.01    -5.60580     3.31078    -5.24208
    58  H   1.0   -0.06    1.01    -3.30373    -5.55838    -5.21222
    59  H   1.0   -0.06    1.01     5.60580    -3.31078    -5.24208
    60  H   1.0   -0.06    1.01     3.31078     5.60580     5.24208
    61  H   1.0   -0.06    1.01    -5.55838     3.30373     5.21222
    62  H   1.0   -0.06    1.01    -3.31078    -5.60580     5.24208
    63  H   1.0   -0.06    1.01     5.55838    -3.30373     5.21222
    64  H   1.0   -0.06    1.01     3.30373     5.55838    -5.21222
    65  H   1.0   -0.06    1.00    -8.85218     0.09186     0.01168
    66  H   1.0   -0.06    1.00    -0.09186    -8.85218    -0.01168
    67  H   1.0   -0.06    1.00     8.85218    -0.09186     0.01168
    68  H   1.0   -0.06    1.00     0.09186     8.85218    -0.01168
    69  H   1.0   -0.06    1.00    -7.75931    -4.31118    -0.08060
    70  H   1.0   -0.06    1.00     4.31118    -7.75931     0.08060
    71  H   1.0   -0.06    1.00     7.75931     4.31118    -0.08060
    72  H   1.0   -0.06    1.00    -4.31118     7.75931     0.08060
    73  B   3.0    0.26    0.00     0.00000     0.00000     0.00000
    74  H   1.0   -0.07    0.98    -1.33794     1.23577    -1.32910
    75  H   1.0   -0.07    0.98     1.33794    -1.23577    -1.32910
    76  H   1.0   -0.07    0.98     1.23577     1.33794     1.32910
    77  H   1.0   -0.07    0.98    -1.23577    -1.33794     1.32910
 
  Z AO/shell   Hii/eV     exponent
  1     Sat Jan 20 17:55:17 CET 2018    EN: 2.200 GAM: 0.531  GM3:-0.4370
     1s    -10.248275    1.266496
  5     Sat Jan 20 20:36:30 CET 2018    EN: 2.040 GAM: 0.259  GM3:-0.0199
     2s    -11.354327    1.787169
     2p     -7.274615    1.308840
  6     Sat Jan 20 17:55:17 CET 2018    EN: 2.550 GAM: 0.417  GM3:-0.0654
     2s    -15.292509    2.030071
     2p    -10.408465    1.801676
  7     Sat Jan 20 17:55:17 CET 2018    EN: 3.040 GAM: 0.444  GM3:-0.1301
     2s    -16.687725    2.226550
     2p    -13.175143    1.981921
  8     Sat Jan 20 17:55:17 CET 2018    EN: 3.440 GAM: 0.468  GM3: 0.0937
     2s    -20.924998    2.442614
     2p    -15.243501    2.233841
 no old-style atom pair restraing (fixing) potential
 
 molecular fragmentation (1/2 indicates fragments):
11111111111111111111111111111111111111111111111111111111111111111111111122222
# atoms in fragment 1/2:    72     5
 fragment masses (1/2) :      664.56       14.84
CMA distance (Bohr)    :   0.000
constraining FC (au)   :  0.0500
 
             =======================================
             |                                     |
             |        S C C  calculation           |
             |                                     |
             =======================================
 #proc     :                      1
 Ncao      :                    224
 Nao       :                    224
 Nel       :                    256
 T(el)     :   300.0
 intcut    :    25.0
 scfconv   :  0.100E-05
   qconv   :  0.200E-04
 intneglect:  0.100E-07
 broydamp  :      0.400
 Nshell    :                    126
 iter      E             dE          RMSdq      gap      omega  full diag
   1   -151.1702901 -0.151170E+03  0.978E+00    4.45       0.0  T
   2   -151.7043137 -0.534024E+00  0.530E+00    2.98       1.0  T
   3   -151.6582576  0.460561E-01  0.228E+00    2.10       1.0  T
   4   -151.8093064 -0.151049E+00  0.577E-01    2.19       1.0  T
   5   -151.8181727 -0.886622E-02  0.214E-01    2.26       1.0  T
   6   -151.8187301 -0.557403E-03  0.875E-02    2.31       1.0  T
   7   -151.8188162 -0.860934E-04  0.328E-02    2.30       1.0  T
   8   -151.8188316 -0.154431E-04  0.966E-03    2.30       1.2  T
   9   -151.8188337 -0.213113E-05  0.509E-03    2.30       2.2  T
  10   -151.8188342 -0.434567E-06  0.235E-03    2.30       4.8  T
  11   -151.8188343 -0.151040E-06  0.613E-04    2.30      18.6  T
  12   -151.8188343 -0.583088E-08  0.153E-04    2.30      74.5  T
  13   -151.8188343 -0.701476E-09  0.693E-05    2.30     164.4  T
speedup  7.05
cpu  time for SCC    3.11 s
wall time for SCC    0.44 s

          eigenvalues
 #    :         116        117        118        119        120        121        122        123
 occ. :        2.000      2.000      2.000      2.000      2.000      2.000      2.000      2.000
 eps  :        -7.658     -7.530     -7.445     -7.445     -7.351     -7.350     -7.330     -7.309
 #    :         124        125        126        127        128        129        130        131
 occ. :        2.000      2.000      2.000      2.000      2.000      0.000      0.000      0.000
 eps  :        -7.309     -7.267     -4.629     -4.629     -4.562     -2.261     -2.035     -1.956
 #    :         132        133        134        135        136        137        138        139
 occ. :        0.000      0.000      0.000      0.000      0.000      0.000      0.000      0.000
 eps  :        -1.956     -1.905     -1.905     -1.764     -1.727      2.085      2.238      2.238
 
 
 Mulliken/CM5 charges        n(s)   n(p)   n(d)
     1 C   0.06382  0.13962   1.086  2.850  0.000
     2 C   0.06382  0.13962   1.086  2.850  0.000
     3 C   0.06382  0.13962   1.086  2.850  0.000
     4 C   0.06382  0.13962   1.086  2.850  0.000
     5 C   0.06498  0.14188   1.084  2.851  0.000
     6 C   0.06498  0.14188   1.084  2.851  0.000
     7 C   0.06498  0.14188   1.084  2.851  0.000
     8 C   0.06498  0.14188   1.084  2.851  0.000
     9 N  -0.03889 -0.27758   1.137  3.902  0.000
    10 N  -0.03154 -0.27091   1.130  3.902  0.000
    11 N  -0.03889 -0.27758   1.137  3.902  0.000
    12 N  -0.03889 -0.27758   1.137  3.902  0.000
    13 N  -0.03154 -0.27091   1.130  3.902  0.000
    14 N  -0.03889 -0.27758   1.137  3.902  0.000
    15 N  -0.03154 -0.27091   1.130  3.902  0.000
    16 N  -0.03154 -0.27091   1.130  3.902  0.000
    17 N  -0.03152 -0.26863   1.130  3.902  0.000
    18 N  -0.05047 -0.28916   1.153  3.898  0.000
    19 N  -0.03152 -0.26863   1.130  3.902  0.000
    20 N  -0.03152 -0.26863   1.130  3.902  0.000
    21 N  -0.05047 -0.28916   1.153  3.898  0.000
    22 N  -0.03152 -0.26863   1.130  3.902  0.000
    23 N  -0.05047 -0.28916   1.153  3.898  0.000
    24 N  -0.05047 -0.28916   1.153  3.898  0.000
    25 C   0.23020  0.39437   1.067  2.703  0.000
    26 C   0.22941  0.39205   1.067  2.704  0.000
    27 C   0.23020  0.39437   1.067  2.703  0.000
    28 C   0.23020  0.39437   1.067  2.703  0.000
    29 C   0.22941  0.39205   1.067  2.704  0.000
    30 C   0.23020  0.39437   1.067  2.703  0.000
    31 C   0.22941  0.39205   1.067  2.704  0.000
    32 C   0.22941  0.39205   1.067  2.704  0.000
    33 O  -0.40118 -0.44228   1.730  4.671  0.000
    34 O  -0.40052 -0.44217   1.729  4.672  0.000
    35 O  -0.40118 -0.44228   1.730  4.671  0.000
    36 O  -0.40118 -0.44228   1.730  4.671  0.000
    37 O  -0.40052 -0.44217   1.729  4.672  0.000
    38 O  -0.40118 -0.44228   1.730  4.671  0.000
    39 O  -0.40052 -0.44217   1.729  4.672  0.000
    40 O  -0.40052 -0.44217   1.729  4.672  0.000
    41 C   0.02906  0.04807   1.078  2.893  0.000
    42 C   0.03183  0.05433   1.073  2.895  0.000
    43 C   0.02906  0.04807   1.078  2.893  0.000
    44 C   0.02906  0.04807   1.078  2.893  0.000
    45 C   0.03183  0.05433   1.073  2.895  0.000
    46 C   0.02906  0.04807   1.078  2.893  0.000
    47 C   0.03183  0.05433   1.073  2.895  0.000
    48 C   0.03183  0.05433   1.073  2.895  0.000
    49 H   0.03614  0.11370   0.964  0.000  0.000
    50 H   0.03238  0.10961   0.968  0.000  0.000
    51 H   0.03614  0.11370   0.964  0.000  0.000
    52 H   0.03614  0.11370   0.964  0.000  0.000
    53 H   0.03238  0.10961   0.968  0.000  0.000
    54 H   0.03614  0.11370   0.964  0.000  0.000
    55 H   0.03238  0.10961   0.968  0.000  0.000
    56 H   0.03238  0.10961   0.968  0.000  0.000
    57 H   0.07448  0.16150   0.926  0.000  0.000
    58 H   0.07120  0.15808   0.929  0.000  0.000
    59 H   0.07448  0.16150   0.926  0.000  0.000
    60 H   0.07448  0.16150   0.926  0.000  0.000
    61 H   0.07120  0.15808   0.929  0.000  0.000
    62 H   0.07448  0.16150   0.926  0.000  0.000
    63 H   0.07120  0.15808   0.929  0.000  0.000
    64 H   0.07120  0.15808   0.929  0.000  0.000
    65 H   0.02480  0.10393   0.975  0.000  0.000
    66 H   0.02480  0.10393   0.975  0.000  0.000
    67 H   0.02480  0.10393   0.975  0.000  0.000
    68 H   0.02480  0.10393   0.975  0.000  0.000
    69 H   0.02575  0.10463   0.974  0.000  0.000
    70 H   0.02575  0.10463   0.974  0.000  0.000
    71 H   0.02575  0.10463   0.974  0.000  0.000
    72 H   0.02575  0.10463   0.974  0.000  0.000
    73 B  -0.19920 -0.61204   1.022  2.177  0.000
    74 H  -0.16013 -0.02804   1.160  0.000  0.000
    75 H  -0.16013 -0.02804   1.160  0.000  0.000
    76 H  -0.16013 -0.02804   1.160  0.000  0.000
    77 H  -0.16013 -0.02804   1.160  0.000  0.000
 
 Wiberg/Mayer (AO) data. WBOs > 0.1 written file <wbo>
 largest (>0.05) Wiberg bond orders for each atom
           total WBO             WBO to atom ...
     1  C   3.976    N   17 0.997    N   21 0.994    C    5 0.952    H   69 0.949
     2  C   3.976    N   22 0.997    N   18 0.994    C    6 0.952    H   70 0.949
     3  C   3.976    N   19 0.997    N   23 0.994    C    7 0.952    H   71 0.949
     4  C   3.976    N   20 0.997    N   24 0.994    C    8 0.952    H   72 0.949
     5  C   3.977    N   13 0.999    N    9 0.995    C    1 0.952    H   65 0.948
     6  C   3.977    N   10 0.999    N   14 0.995    C    2 0.952    H   66 0.948
     7  C   3.977    N   15 0.999    N   11 0.995    C    3 0.952    H   67 0.948
     8  C   3.977    N   16 0.999    N   12 0.995    C    4 0.952    H   68 0.948
     9  N   3.406    C   25 1.090    C    5 0.995    C   41 0.994    O   33 0.142
    10  N   3.414    C   26 1.094    C    6 0.999    C   42 0.997    O   34 0.145
    11  N   3.406    C   27 1.090    C    7 0.995    C   43 0.994    O   35 0.142
    12  N   3.406    C   28 1.090    C    8 0.995    C   44 0.994    O   36 0.142
    13  N   3.414    C   29 1.094    C    5 0.999    C   45 0.997    O   37 0.145
    14  N   3.406    C   30 1.090    C    6 0.995    C   46 0.994    O   38 0.142
    15  N   3.414    C   31 1.094    C    7 0.999    C   47 0.997    O   39 0.145
    16  N   3.414    C   32 1.094    C    8 0.999    C   48 0.997    O   40 0.145
    17  N   3.417    C   25 1.096    C    1 0.997    C   42 0.997    O   33 0.147
    18  N   3.380    C   26 1.067    C    2 0.994    C   43 0.994    O   34 0.136
    19  N   3.417    C   27 1.096    C    3 0.997    C   48 0.997    O   35 0.147
    20  N   3.417    C   28 1.096    C    4 0.997    C   45 0.997    O   36 0.147
    21  N   3.380    C   29 1.067    C    1 0.994    C   46 0.994    O   37 0.136
    22  N   3.417    C   30 1.096    C    2 0.997    C   47 0.997    O   38 0.147
    23  N   3.380    C   31 1.067    C    3 0.994    C   44 0.994    O   39 0.136
    24  N   3.380    C   32 1.067    C    4 0.994    C   41 0.994    O   40 0.136
    25  C   3.963    O   33 1.700    N   17 1.096    N    9 1.090
    26  C   3.963    O   34 1.699    N   10 1.094    N   18 1.067
    27  C   3.963    O   35 1.700    N   19 1.096    N   11 1.090
    28  C   3.963    O   36 1.700    N   20 1.096    N   12 1.090
    29  C   3.963    O   37 1.699    N   13 1.094    N   21 1.067
    30  C   3.963    O   38 1.700    N   22 1.096    N   14 1.090
    31  C   3.963    O   39 1.699    N   15 1.094    N   23 1.067
    32  C   3.963    O   40 1.699    N   16 1.094    N   24 1.067
    33  O   2.052    C   25 1.700    N   17 0.147    N    9 0.142
    34  O   2.054    C   26 1.699    N   10 0.145    N   18 0.136
    35  O   2.052    C   27 1.700    N   19 0.147    N   11 0.142
    36  O   2.052    C   28 1.700    N   20 0.147    N   12 0.142
    37  O   2.054    C   29 1.699    N   13 0.145    N   21 0.136
    38  O   2.052    C   30 1.700    N   22 0.147    N   14 0.142
    39  O   2.054    C   31 1.699    N   15 0.145    N   23 0.136
    40  O   2.054    C   32 1.699    N   16 0.145    N   24 0.136
    41  C   3.969    N    9 0.994    N   24 0.994    H   49 0.965    H   57 0.959
    42  C   3.971    N   17 0.997    N   10 0.997    H   50 0.964    H   58 0.959
    43  C   3.969    N   11 0.994    N   18 0.994    H   51 0.965    H   59 0.959
    44  C   3.969    N   12 0.994    N   23 0.994    H   52 0.965    H   60 0.959
    45  C   3.971    N   20 0.997    N   13 0.997    H   53 0.964    H   61 0.959
    46  C   3.969    N   14 0.994    N   21 0.994    H   54 0.965    H   62 0.959
    47  C   3.971    N   22 0.997    N   15 0.997    H   55 0.964    H   63 0.959
    48  C   3.971    N   19 0.997    N   16 0.997    H   56 0.964    H   64 0.959
    49  H   0.998    C   41 0.965
    50  H   0.998    C   42 0.964
    51  H   0.998    C   43 0.965
    52  H   0.998    C   44 0.965
    53  H   0.998    C   45 0.964
    54  H   0.998    C   46 0.965
    55  H   0.998    C   47 0.964
    56  H   0.998    C   48 0.964
    57  H   0.994    C   41 0.959
    58  H   0.994    C   42 0.959
    59  H   0.994    C   43 0.959
    60  H   0.994    C   44 0.959
    61  H   0.994    C   45 0.959
    62  H   0.994    C   46 0.959
    63  H   0.994    C   47 0.959
    64  H   0.994    C   48 0.959
    65  H   0.999    C    5 0.948
    66  H   0.999    C    6 0.948
    67  H   0.999    C    7 0.948
    68  H   0.999    C    8 0.948
    69  H   0.999    C    1 0.949
    70  H   0.999    C    2 0.949
    71  H   0.999    C    3 0.949
    72  H   0.999    C    4 0.949
    73  B   3.774    H   74 0.902    H   77 0.902    H   76 0.902    H   75 0.902
    74  H   0.974    B   73 0.902
    75  H   0.974    B   73 0.902
    76  H   0.974    B   73 0.902
    77  H   0.974    B   73 0.902
 density
 
 cube file module (SG, 7/16)
 cube_pthr     :   0.005
 cube_step     :   0.400
 non-zero P (%):  33.087   nmat:    8338
 Grid Boundaries (x y z) :
   11.8521755451094        11.8521755451094        9.00413177240458     
  -11.8521755451094       -11.8521755451094       -9.00413177240458     
 Total # of points                165600
 writing density.cub
 N    (numint) : ******
cpu  time for cube   47.42 s
wall time for cube   45.77 s
 
molecular dipole:
                 x           y           z       tot (Debye)
 q only:        0.000       0.000       0.000
   full:        0.000       0.000       0.000       0.000
molecular quadrupole (traceless):
                xx          xy          yy          xz          yz          zz
 q only:       51.323      -0.000      51.323      -0.000       0.000    -102.646
  q+dip:       60.119      -0.000      60.119      -0.000       0.000    -120.238
   full:       61.344      -0.000      61.344      -0.000       0.000    -122.687
 SCC converged in                     13  cycles
 
SCC energy    :    -151.8188343
rep           :       1.4352983
ES            :       0.1530207
AES           :       0.0012044
disp          :      -0.1199959
XB            :       0.0000000
fix           :       0.0000000
total E       :    -150.5035319
atomizationE  :      20.4261252    12817.59
(atE without considerung molecular charge,
 total energy contains solvation terms)
H-L gap (eV)  :          2.3006
 
             =======================================
             |                                     |
             |    Approximate Normal Coordinate    |
             |   Rational Function Optimization    |
             |                                     |
             =======================================
Ref. for RF algo: F.Eckert, P.Pulay, H.-J.Werner
                  J.Comput.Chem. 18 (1997) 1473.
ANC idea implemented by S. Grimme in the 2000ers (unpublished)
restraining potential by S. Ehrlich.
dumping coords to <xtbopt.coord> and <xtbopt.log
 optlevel                         1
 Maxcycle                       385
 Maxmicro                        20
 Econv         1.000000000000000E-006
 Gconv         8.000000000000000E-004
 Maxdispl       1.00000000000000     
 Hlow          4.000000000000000E-003
 S6             20.0000000000000     
 Nvar                        225

generating ANC from model Hessian ...
 Shifting diagonal of input Hessian by   4.038933401028826E-003
 Lowest  eigenvalues of input Hessian
    0.004000   -0.000000   -0.000000   -0.000000    0.000000    0.000000
    0.000000    0.004635    0.004635    0.004638    0.005376    0.005376
    0.007114    0.007134    0.008441    0.008518    0.013151    0.013151
 Highest eigenvalues
    2.433708    2.435039    2.439449    2.441218    2.441218    2.445504
 
cpu  time for ANC gen    0.37 s
wall time for ANC gen    0.26 s
................................................................................
.............................. CYCLE    1 ......................................
................................................................................
  q data taken from xtbrestart
  CAMM data taken from xtbrestart
   1   -151.8188343 -0.151819E+03  0.387E-05    2.30       0.0  T
   2   -151.8188343 -0.499085E-10  0.173E-05    2.30     658.9  T
   3   -151.8188343 -0.966338E-11  0.114E-05    2.30    1000.0  T
speedup  8.65
cpu  time for SCC    1.61 s
wall time for SCC    0.19 s
speedup  7.98
cpu  time for grad    1.68 s
wall time for grad    0.21 s
 E :   -150.50353188  G :  0.090059    pred/act E change:  0.000D+00 -0.160D-09
Maxdispl :   0.2121   ||displ|| :   0.4430   Lambda : -0.246D-01
Largest |displ|/coords:  0.2121 (  79)  0.1727 (  55)  0.1659 (  14)
................................................................................
.............................. CYCLE    2 ......................................
................................................................................
   1   -151.8932930 -0.151893E+03  0.163E-01    2.52       0.0  T
   2   -151.8936432 -0.350205E-03  0.927E-02    2.60       1.0  T
   3   -151.8936618 -0.186356E-04  0.479E-02    2.64       1.0  T
   4   -151.8937003 -0.384883E-04  0.690E-03    2.65       1.7  T
   5   -151.8937015 -0.116273E-05  0.255E-03    2.64       4.5  T
   6   -151.8937019 -0.354859E-06  0.108E-03    2.64      10.5  T
   7   -151.8937019 -0.242698E-07  0.602E-04    2.64      18.9  T
speedup  9.29
cpu  time for SCC    2.44 s
wall time for SCC    0.26 s
speedup  8.00
cpu  time for grad    1.39 s
wall time for grad    0.17 s
 E :   -150.51968590  G :  0.028374    pred/act E change:  0.000D+00 -0.162D-01
Maxdispl :   0.2143   ||displ|| :   0.4122   Lambda : -0.626D-02
Largest |displ|/coords:  0.2143 (   7)  0.2027 (  14)  0.1454 (  55)
................................................................................
.............................. CYCLE    3 ......................................
................................................................................
   1   -151.9324299 -0.151932E+03  0.869E-02    2.72       0.0  T
   2   -151.9325390 -0.109066E-03  0.519E-02    2.75       1.0  T
   3   -151.9325431 -0.413623E-05  0.255E-02    2.76       1.0  T
   4   -151.9325550 -0.119192E-04  0.499E-03    2.77       2.3  T
   5   -151.9325557 -0.654035E-06  0.218E-03    2.76       5.2  T
   6   -151.9325558 -0.109729E-06  0.110E-03    2.76      10.4  T
   7   -151.9325558 -0.240336E-07  0.531E-04    2.76      21.5  T
speedup  8.31
cpu  time for SCC    2.26 s
wall time for SCC    0.27 s
speedup  7.39
cpu  time for grad    1.28 s
wall time for grad    0.17 s
 E :   -150.52374047  G :  0.013571    pred/act E change: -0.147D-01 -0.405D-02
Maxdispl :   0.3099   ||displ|| :   0.4064   Lambda : -0.177D-02
Largest |displ|/coords:  0.3099 (   7)  0.1571 (   4)  0.1497 (  14)
................................................................................
.............................. CYCLE    4 ......................................
................................................................................
   1   -151.9394103 -0.151939E+03  0.797E-02    2.78       0.0  T
   2   -151.9394521 -0.417837E-04  0.471E-02    2.81       1.0  T
   3   -151.9394499  0.217121E-05  0.155E-02    2.82       1.0  T
   4   -151.9394565 -0.663393E-05  0.410E-03    2.83       2.8  T
   5   -151.9394573 -0.738783E-06  0.146E-03    2.82       7.8  T
   6   -151.9394573 -0.747467E-07  0.615E-04    2.82      18.5  T
   7   -151.9394573 -0.335953E-08  0.309E-04    2.82      36.9  T
   8   -151.9394573 -0.117447E-08  0.772E-05    2.82     147.6  T
speedup  9.00
cpu  time for SCC    2.59 s
wall time for SCC    0.29 s
speedup  6.99
cpu  time for grad    1.17 s
wall time for grad    0.17 s
 E :   -150.52504024  G :  0.007750    pred/act E change: -0.366D-02 -0.130D-02
Maxdispl :   0.3943   ||displ|| :   0.4652   Lambda : -0.121D-02
Largest |displ|/coords:  0.3943 (   7)  0.1523 (  10)  0.1322 (  14)
................................................................................
.............................. CYCLE    5 ......................................
................................................................................
   1   -151.9384906 -0.151938E+03  0.105E-01    2.82       0.0  T
   2   -151.9385201 -0.294793E-04  0.634E-02    2.85       1.0  T
   3   -151.9385196  0.518958E-06  0.122E-02    2.86       1.0  T
   4   -151.9385239 -0.433502E-05  0.289E-03    2.86       3.9  T
   5   -151.9385242 -0.277991E-06  0.116E-03    2.86       9.8  T
   6   -151.9385243 -0.506550E-07  0.567E-04    2.86      20.1  T
   7   -151.9385243 -0.168748E-08  0.170E-04    2.86      67.2  T
speedup  7.23
cpu  time for SCC    2.05 s
wall time for SCC    0.28 s
speedup  9.26
cpu  time for grad    1.76 s
wall time for grad    0.19 s
 E :   -150.52593793  G :  0.009260    pred/act E change: -0.103D-02 -0.898D-03
Maxdispl :   0.3723   ||displ|| :   0.4513   Lambda : -0.843D-03
Largest |displ|/coords:  0.3723 (   7)  0.1785 (  10)  0.1204 (   4)
................................................................................
.............................. CYCLE    6 ......................................
................................................................................
   1   -151.9340829 -0.151934E+03  0.119E-01    2.85       0.0  T
   2   -151.9341235 -0.406142E-04  0.722E-02    2.89       1.0  T
   3   -151.9341202  0.327675E-05  0.168E-02    2.90       1.0  T
   4   -151.9341295 -0.926259E-05  0.288E-03    2.90       4.0  T
   5   -151.9341298 -0.302504E-06  0.124E-03    2.90       9.2  T
   6   -151.9341298 -0.509382E-07  0.649E-04    2.90      17.6  T
   7   -151.9341298 -0.177451E-08  0.177E-04    2.90      64.4  T
   8   -151.9341298 -0.169464E-08  0.673E-05    2.90     169.4  T
speedup  8.69
cpu  time for SCC    2.83 s
wall time for SCC    0.33 s
speedup  7.16
cpu  time for grad    1.25 s
wall time for grad    0.17 s
 E :   -150.52655402  G :  0.010182    pred/act E change: -0.734D-03 -0.616D-03
Maxdispl :   0.2991   ||displ|| :   0.3874   Lambda : -0.668D-03
Largest |displ|/coords:  0.2991 (   7)  0.1925 (  10)  0.0849 (  43)
................................................................................
.............................. CYCLE    7 ......................................
................................................................................
   1   -151.9328678 -0.151933E+03  0.128E-01    2.88       0.0  T
   2   -151.9328914 -0.235459E-04  0.791E-02    2.89       1.0  T
   3   -151.9328864  0.497236E-05  0.129E-02    2.89       1.0  T
   4   -151.9328967 -0.103247E-04  0.241E-03    2.89       4.7  T
   5   -151.9328969 -0.135225E-06  0.129E-03    2.89       8.8  T
   6   -151.9328969 -0.231433E-07  0.596E-04    2.89      19.1  T
   7   -151.9328969 -0.373558E-08  0.221E-04    2.89      51.4  T
speedup  7.43
cpu  time for SCC    2.11 s
wall time for SCC    0.28 s
speedup  7.78
cpu  time for grad    1.35 s
wall time for grad    0.17 s
 E :   -150.52695290  G :  0.008254    pred/act E change: -0.508D-03 -0.399D-03
Maxdispl :   0.1999   ||displ|| :   0.3525   Lambda : -0.545D-03
Largest |displ|/coords:  0.1999 (   4)  0.1735 (  10)  0.1706 (   7)
................................................................................
.............................. CYCLE    8 ......................................
................................................................................
   1   -151.9300577 -0.151930E+03  0.119E-01    2.89       0.0  T
   2   -151.9301264 -0.686433E-04  0.717E-02    2.91       1.0  T
   3   -151.9301209  0.543780E-05  0.247E-02    2.91       1.0  T
   4   -151.9301361 -0.151994E-04  0.347E-03    2.91       3.3  T
   5   -151.9301367 -0.566340E-06  0.153E-03    2.91       7.4  T
   6   -151.9301368 -0.797855E-07  0.704E-04    2.91      16.2  T
   7   -151.9301368 -0.338810E-08  0.284E-04    2.91      40.1  T
   8   -151.9301368 -0.138968E-08  0.977E-05    2.91     116.7  T
speedup  8.57
cpu  time for SCC    2.49 s
wall time for SCC    0.29 s
speedup  8.66
cpu  time for grad    1.50 s
wall time for grad    0.17 s
 E :   -150.52715668  G :  0.008512    pred/act E change: -0.384D-03 -0.204D-03
Maxdispl :   0.0692   ||displ|| :   0.1116   Lambda : -0.297D-03
Largest |displ|/coords:  0.0692 (   7)  0.0575 (   4)  0.0322 (  14)
................................................................................
.............................. CYCLE    9 ......................................
................................................................................
   1   -151.9349943 -0.151935E+03  0.347E-02    2.92       0.0  T
   2   -151.9350058 -0.115366E-04  0.191E-02    2.89       1.0  T
   3   -151.9350063 -0.512119E-06  0.843E-03    2.89       1.4  T
   4   -151.9350070 -0.605666E-06  0.146E-03    2.89       7.8  T
   5   -151.9350070 -0.597602E-07  0.605E-04    2.89      18.8  T
   6   -151.9350070 -0.209604E-07  0.225E-04    2.89      50.6  T
   7   -151.9350070 -0.381334E-09  0.893E-05    2.89     127.5  T
speedup  8.57
cpu  time for SCC    2.30 s
wall time for SCC    0.27 s
speedup  8.56
cpu  time for grad    1.49 s
wall time for grad    0.17 s
 E :   -150.52734411  G :  0.005109    pred/act E change: -0.306D-03 -0.187D-03
Maxdispl :   0.0863   ||displ|| :   0.1305   Lambda : -0.148D-03
Largest |displ|/coords:  0.0863 (  10)  0.0503 (   7)  0.0409 (   4)
................................................................................
.............................. CYCLE   10 ......................................
................................................................................
   1   -151.9360143 -0.151936E+03  0.477E-02    2.88       0.0  T
   2   -151.9360198 -0.543491E-05  0.292E-02    2.88       1.0  T
   3   -151.9360180  0.172254E-05  0.650E-03    2.87       1.8  T
   4   -151.9360209 -0.285497E-05  0.153E-03    2.87       7.5  T
   5   -151.9360210 -0.796082E-07  0.673E-04    2.87      16.9  T
   6   -151.9360210 -0.776103E-08  0.244E-04    2.87      46.8  T
   7   -151.9360210 -0.452445E-09  0.116E-04    2.87      97.9  T
speedup 10.26
cpu  time for SCC    3.16 s
wall time for SCC    0.31 s
speedup  8.06
cpu  time for grad    1.40 s
wall time for grad    0.17 s
 E :   -150.52746136  G :  0.003499    pred/act E change: -0.150D-03 -0.117D-03
Maxdispl :   0.1792   ||displ|| :   0.2863   Lambda : -0.237D-03
Largest |displ|/coords:  0.1792 (  10)  0.1305 (   7)  0.1305 (   4)
................................................................................
.............................. CYCLE   11 ......................................
................................................................................
   1   -151.9355953 -0.151936E+03  0.940E-02    2.87       0.0  T
   2   -151.9356149 -0.196078E-04  0.578E-02    2.86       1.0  T
   3   -151.9356065  0.842681E-05  0.133E-02    2.85       1.0  T
   4   -151.9356196 -0.131161E-04  0.276E-03    2.85       4.1  T
   5   -151.9356198 -0.203866E-06  0.131E-03    2.85       8.7  T
   6   -151.9356198 -0.222487E-07  0.445E-04    2.85      25.6  T
   7   -151.9356198 -0.179256E-08  0.212E-04    2.85      53.7  T
   8   -151.9356198 -0.835371E-09  0.584E-05    2.85     195.0  T
   9   -151.9356198 -0.162856E-09  0.273E-05    2.85     417.7  T
speedup  8.23
cpu  time for SCC    2.72 s
wall time for SCC    0.33 s
speedup  7.68
cpu  time for grad    1.51 s
wall time for grad    0.20 s
 E :   -150.52763928  G :  0.004349    pred/act E change: -0.754D-04 -0.178D-03
Maxdispl :   0.2151   ||displ|| :   0.3688   Lambda : -0.242D-03
Largest |displ|/coords:  0.2151 (   7)  0.2023 (  10)  0.1775 (   4)
................................................................................
.............................. CYCLE   12 ......................................
................................................................................
   1   -151.9335721 -0.151934E+03  0.107E-01    2.85       0.0  T
   2   -151.9335981 -0.260200E-04  0.658E-02    2.84       1.0  T
   3   -151.9335850  0.131088E-04  0.166E-02    2.84       1.0  T
   4   -151.9336047 -0.196953E-04  0.301E-03    2.84       3.8  T
   5   -151.9336050 -0.220994E-06  0.152E-03    2.84       7.5  T
   6   -151.9336050 -0.229701E-07  0.499E-04    2.84      22.9  T
   7   -151.9336050 -0.320060E-08  0.225E-04    2.84      50.6  T
speedup  8.63
cpu  time for SCC    2.30 s
wall time for SCC    0.27 s
speedup  8.92
cpu  time for grad    1.56 s
wall time for grad    0.18 s
 E :   -150.52782126  G :  0.007832    pred/act E change: -0.128D-03 -0.182D-03
Maxdispl :   0.3185   ||displ|| :   0.4114   Lambda : -0.290D-03
Largest |displ|/coords:  0.3185 (   7)  0.1650 (   4)  0.1588 (  10)
................................................................................
.............................. CYCLE   13 ......................................
................................................................................
   1   -151.9317646 -0.151932E+03  0.964E-02    2.84       0.0  T
   2   -151.9317840 -0.194150E-04  0.595E-02    2.84       1.0  T
   3   -151.9317708  0.131674E-04  0.157E-02    2.84       1.0  T
   4   -151.9317898 -0.189595E-04  0.265E-03    2.84       4.3  T
   5   -151.9317899 -0.115399E-06  0.141E-03    2.84       8.1  T
   6   -151.9317899 -0.130584E-07  0.437E-04    2.84      26.1  T
   7   -151.9317899 -0.373163E-08  0.192E-04    2.84      59.4  T
speedup  8.71
cpu  time for SCC    2.36 s
wall time for SCC    0.27 s
speedup  7.72
cpu  time for grad    1.39 s
wall time for grad    0.18 s
 E :   -150.52804809  G :  0.010152    pred/act E change: -0.138D-03 -0.227D-03
Maxdispl :   0.3572   ||displ|| :   0.4132   Lambda : -0.382D-03
Largest |displ|/coords:  0.3572 (   7)  0.1368 (   4)  0.0835 (  10)
................................................................................
.............................. CYCLE   14 ......................................
................................................................................
   1   -151.9315440 -0.151932E+03  0.860E-02    2.84       0.0  T
   2   -151.9315585 -0.145158E-04  0.529E-02    2.84       1.0  T
   3   -151.9315483  0.102010E-04  0.138E-02    2.85       1.0  T
   4   -151.9315629 -0.146448E-04  0.239E-03    2.85       4.8  T
   5   -151.9315630 -0.964731E-07  0.115E-03    2.85       9.9  T
   6   -151.9315630 -0.132212E-07  0.483E-04    2.85      23.6  T
   7   -151.9315630 -0.256694E-08  0.182E-04    2.85      62.8  T
speedup  9.96
cpu  time for SCC    3.18 s
wall time for SCC    0.32 s
speedup  8.78
cpu  time for grad    1.55 s
wall time for grad    0.18 s
 E :   -150.52832900  G :  0.008923    pred/act E change: -0.170D-03 -0.281D-03
Maxdispl :   0.3212   ||displ|| :   0.3989   Lambda : -0.293D-03
Largest |displ|/coords:  0.3212 (   7)  0.1824 (   4)  0.0850 (  10)
................................................................................
.............................. CYCLE   15 ......................................
................................................................................
   1   -151.9306300 -0.151931E+03  0.916E-02    2.84       0.0  T
   2   -151.9306573 -0.272893E-04  0.557E-02    2.86       1.0  T
   3   -151.9306502  0.711157E-05  0.156E-02    2.87       1.0  T
   4   -151.9306625 -0.122429E-04  0.299E-03    2.87       3.8  T
   5   -151.9306628 -0.356371E-06  0.130E-03    2.87       8.8  T
   6   -151.9306628 -0.334250E-07  0.612E-04    2.87      18.6  T
   7   -151.9306628 -0.240269E-08  0.193E-04    2.87      58.9  T
   8   -151.9306628 -0.106854E-08  0.785E-05    2.87     145.2  T
speedup  9.00
cpu  time for SCC    2.62 s
wall time for SCC    0.29 s
speedup  8.62
cpu  time for grad    1.41 s
wall time for grad    0.16 s
 E :   -150.52849658  G :  0.007696    pred/act E change: -0.223D-03 -0.168D-03
Maxdispl :   0.1982   ||displ|| :   0.2520   Lambda : -0.285D-03
Largest |displ|/coords:  0.1982 (   7)  0.1073 (  10)  0.0516 (  36)
................................................................................
.............................. CYCLE   16 ......................................
................................................................................
   1   -151.9368883 -0.151937E+03  0.674E-02    2.87       0.0  T
   2   -151.9369054 -0.170626E-04  0.404E-02    2.88       1.0  T
   3   -151.9369037  0.166851E-05  0.123E-02    2.89       1.0  T
   4   -151.9369075 -0.381848E-05  0.203E-03    2.88       5.6  T
   5   -151.9369077 -0.141430E-06  0.100E-03    2.88      11.4  T
   6   -151.9369077 -0.300334E-07  0.341E-04    2.88      33.4  T
   7   -151.9369077 -0.833239E-09  0.146E-04    2.88      78.3  T
speedup 10.03
cpu  time for SCC    2.41 s
wall time for SCC    0.24 s
speedup 11.29
cpu  time for grad    1.99 s
wall time for grad    0.18 s
 E :   -150.52853188  G :  0.007926    pred/act E change: -0.170D-03 -0.353D-04
Maxdispl :   0.0747   ||displ|| :   0.1281   Lambda : -0.180D-03
Largest |displ|/coords:  0.0747 (   7)  0.0660 (   4)  0.0527 (  10)
................................................................................
.............................. CYCLE   17 ......................................
................................................................................
   1   -151.9341715 -0.151934E+03  0.388E-02    2.88       0.0  T
   2   -151.9341780 -0.645651E-05  0.234E-02    2.88       1.0  T
   3   -151.9341772  0.762568E-06  0.776E-03    2.87       1.5  T
   4   -151.9341789 -0.175005E-05  0.129E-03    2.87       8.9  T
   5   -151.9341790 -0.618943E-07  0.640E-04    2.88      17.8  T
   6   -151.9341790 -0.936646E-08  0.246E-04    2.88      46.2  T
   7   -151.9341790 -0.468219E-09  0.954E-05    2.88     119.5  T
speedup 11.38
cpu  time for SCC    2.70 s
wall time for SCC    0.24 s
speedup 11.07
cpu  time for grad    1.89 s
wall time for grad    0.17 s
 E :   -150.52863805  G :  0.003527    pred/act E change: -0.151D-03 -0.106D-03
Maxdispl :   0.0957   ||displ|| :   0.1654   Lambda : -0.994D-04
Largest |displ|/coords:  0.0957 (   7)  0.0820 (   4)  0.0552 (   2)
................................................................................
.............................. CYCLE   18 ......................................
................................................................................
   1   -151.9318127 -0.151932E+03  0.471E-02    2.87       0.0  T
   2   -151.9318250 -0.123779E-04  0.284E-02    2.87       1.0  T
   3   -151.9318241  0.923033E-06  0.928E-03    2.87       1.2  T
   4   -151.9318264 -0.226858E-05  0.172E-03    2.87       6.6  T
   5   -151.9318265 -0.137219E-06  0.769E-04    2.87      14.8  T
   6   -151.9318265 -0.166760E-07  0.358E-04    2.87      31.9  T
   7   -151.9318265 -0.109659E-08  0.121E-04    2.87      94.3  T
   8   -151.9318265 -0.216659E-09  0.544E-05    2.87     209.5  T
speedup  9.33
cpu  time for SCC    2.74 s
wall time for SCC    0.29 s
speedup  9.94
cpu  time for grad    2.04 s
wall time for grad    0.21 s
 E :   -150.52857112  G :  0.007571    pred/act E change: -0.914D-04  0.669D-04
Maxdispl :   0.0482   ||displ|| :   0.0855   Lambda : -0.213D-03
Largest |displ|/coords:  0.0482 (   2)  0.0439 (  10)  0.0418 (   3)
................................................................................
.............................. CYCLE   19 ......................................
................................................................................
   1   -151.9341209 -0.151934E+03  0.229E-02    2.87       0.0  T
   2   -151.9341278 -0.684806E-05  0.130E-02    2.87       1.0  T
   3   -151.9341278 -0.658511E-07  0.590E-03    2.87       1.9  T
   4   -151.9341282 -0.384002E-06  0.112E-03    2.87      10.2  T
   5   -151.9341283 -0.626392E-07  0.385E-04    2.87      29.6  T
   6   -151.9341283 -0.649092E-08  0.184E-04    2.87      61.9  T
speedup  8.79
cpu  time for SCC    2.10 s
wall time for SCC    0.24 s
speedup  8.66
cpu  time for grad    1.52 s
wall time for grad    0.17 s
 E :   -150.52868205  G :  0.001788    pred/act E change: -0.511D-04 -0.111D-03
Maxdispl :   0.0328   ||displ|| :   0.0471   Lambda : -0.133D-04
Largest |displ|/coords:  0.0328 (   7)  0.0218 (  10)  0.0171 (   4)
................................................................................
.............................. CYCLE   20 ......................................
................................................................................
   1   -151.9343874 -0.151934E+03  0.112E-02    2.87       0.0  T
   2   -151.9343876 -0.160211E-06  0.686E-03    2.87       1.7  T
   3   -151.9343875  0.365422E-07  0.115E-03    2.87       9.9  T
   4   -151.9343876 -0.753375E-07  0.283E-04    2.87      40.3  T
   5   -151.9343876 -0.129123E-08  0.143E-04    2.87      79.5  T
   6   -151.9343876 -0.346120E-09  0.592E-05    2.87     192.3  T
speedup  8.77
cpu  time for SCC    2.20 s
wall time for SCC    0.25 s
speedup  8.39
cpu  time for grad    1.60 s
wall time for grad    0.19 s
 E :   -150.52869260  G :  0.001372    pred/act E change: -0.107D-03 -0.106D-04
Maxdispl :   0.0691   ||displ|| :   0.1119   Lambda : -0.261D-04
Largest |displ|/coords:  0.0691 (   7)  0.0515 (  10)  0.0489 (   4)

generating ANC from model Hessian ...
 Shifting diagonal of input Hessian by   1.530638393988396E-003
 Lowest  eigenvalues of input Hessian
   -0.000000   -0.000000   -0.000000   -0.000000   -0.000000    0.000000
    0.004000    0.004746    0.004753    0.004998    0.005112    0.005506
    0.005892    0.005900    0.007224    0.007466    0.012124    0.012126
 Highest eigenvalues
    2.491682    2.491715    2.548870    2.549174    2.549180    2.550244
 
cpu  time for ANC gen    1.90 s
wall time for ANC gen    0.33 s
................................................................................
.............................. CYCLE   21 ......................................
................................................................................
   1   -151.9346335 -0.151935E+03  0.283E-02    2.87       0.0  T
   2   -151.9346347 -0.118862E-05  0.174E-02    2.87       1.0  T
   3   -151.9346343  0.409348E-06  0.316E-03    2.87       3.6  T
   4   -151.9346350 -0.703421E-06  0.788E-04    2.87      14.5  T
   5   -151.9346350 -0.135390E-07  0.390E-04    2.87      29.2  T
   6   -151.9346350 -0.157351E-08  0.160E-04    2.87      71.3  T
   7   -151.9346350 -0.292545E-09  0.566E-05    2.87     201.4  T
speedup 10.70
cpu  time for SCC    2.87 s
wall time for SCC    0.27 s
speedup  7.80
cpu  time for grad    1.58 s
wall time for grad    0.20 s
 E :   -150.52870325  G :  0.001592    pred/act E change:  0.000D+00 -0.107D-04
Maxdispl :   0.0417   ||displ|| :   0.0521   Lambda : -0.188D-04
Largest |displ|/coords:  0.0417 (   7)  0.0264 (   6)  0.0106 (   8)
................................................................................
.............................. CYCLE   22 ......................................
................................................................................
   1   -151.9344405 -0.151934E+03  0.601E-03    2.87       0.0  T
   2   -151.9344409 -0.363802E-06  0.362E-03    2.87       3.1  T
   3   -151.9344408  0.262012E-07  0.164E-03    2.87       6.9  T
   4   -151.9344409 -0.804254E-07  0.266E-04    2.88      42.8  T
   5   -151.9344409 -0.334086E-08  0.101E-04    2.87     112.8  T
   6   -151.9344409 -0.170900E-09  0.515E-05    2.87     221.1  T
speedup  9.88
cpu  time for SCC    2.61 s
wall time for SCC    0.26 s
speedup  9.19
cpu  time for grad    1.87 s
wall time for grad    0.20 s
 E :   -150.52870362  G :  0.001352    pred/act E change:  0.000D+00 -0.365D-06
Maxdispl :   0.0247   ||displ|| :   0.0272   Lambda : -0.128D-04
Largest |displ|/coords:  0.0247 (   7)  0.0075 (   8)  0.0067 (   2)
................................................................................
.............................. CYCLE   23 ......................................
................................................................................
   1   -151.9343872 -0.151934E+03  0.268E-03    2.87       0.0  T
   2   -151.9343873 -0.808363E-07  0.162E-03    2.88       7.0  T
   3   -151.9343873  0.238862E-08  0.781E-04    2.88      14.6  T
   4   -151.9343873 -0.162098E-07  0.130E-04    2.88      87.9  T
   5   -151.9343873 -0.663249E-09  0.545E-05    2.88     209.0  T
speedup  9.07
cpu  time for SCC    2.06 s
wall time for SCC    0.23 s
speedup  8.35
cpu  time for grad    1.63 s
wall time for grad    0.20 s
 E :   -150.52871048  G :  0.000881    pred/act E change: -0.944D-05 -0.686D-05
Maxdispl :   0.0068   ||displ|| :   0.0103   Lambda : -0.205D-05
Largest |displ|/coords:  0.0068 (   6)  0.0038 (   9)  0.0030 (   3)
................................................................................
.............................. CYCLE   24 ......................................
................................................................................
   1   -151.9343779 -0.151934E+03  0.318E-03    2.88       0.0  T
   2   -151.9343779 -0.374510E-07  0.194E-03    2.88       5.9  T
   3   -151.9343779  0.118491E-07  0.535E-04    2.88      21.3  T
   4   -151.9343779 -0.185613E-07  0.131E-04    2.88      87.1  T
   5   -151.9343779 -0.555076E-09  0.537E-05    2.88     212.3  T
speedup 11.00
cpu  time for SCC    2.33 s
wall time for SCC    0.21 s
speedup 10.04
cpu  time for grad    2.02 s
wall time for grad    0.20 s
 E :   -150.52871179  G :  0.000549    pred/act E change: -0.641D-05 -0.131D-05
Maxdispl :   0.0069   ||displ|| :   0.0114   Lambda : -0.163D-05
Largest |displ|/coords:  0.0069 (   9)  0.0046 (   6)  0.0043 (  36)
................................................................................
.............................. CYCLE   25 ......................................
................................................................................
   1   -151.9343541 -0.151934E+03  0.447E-03    2.88       0.0  T
   2   -151.9343542 -0.152015E-06  0.273E-03    2.88       4.2  T
   3   -151.9343542  0.269921E-07  0.109E-03    2.88      10.5  T
   4   -151.9343543 -0.534526E-07  0.229E-04    2.88      49.7  T
   5   -151.9343543 -0.184420E-08  0.890E-05    2.88     128.1  T
   6   -151.9343543 -0.985949E-10  0.322E-05    2.88     353.4  T
speedup 10.77
cpu  time for SCC    2.53 s
wall time for SCC    0.24 s
speedup  9.00
cpu  time for grad    1.67 s
wall time for grad    0.19 s
 E :   -150.52871285  G :  0.000238    pred/act E change: -0.103D-05 -0.106D-05
Maxdispl :   0.0052   ||displ|| :   0.0080   Lambda : -0.445D-06
Largest |displ|/coords:  0.0052 (   6)  0.0040 (   9)  0.0022 (  36)
................................................................................
.............................. CYCLE   26 ......................................
................................................................................
   1   -151.9343788 -0.151934E+03  0.253E-03    2.88       0.0  T
   2   -151.9343788 -0.495631E-07  0.156E-03    2.88       7.3  T
   3   -151.9343788  0.922088E-08  0.642E-04    2.88      17.8  T
   4   -151.9343788 -0.180654E-07  0.125E-04    2.88      91.0  T
   5   -151.9343788 -0.602910E-09  0.494E-05    2.88     230.6  T
speedup  8.13
cpu  time for SCC    1.98 s
wall time for SCC    0.24 s
speedup  9.41
cpu  time for grad    2.16 s
wall time for grad    0.23 s
 E :   -150.52871310  G :  0.000174    pred/act E change: -0.814D-06 -0.244D-06
Maxdispl :   0.0012   ||displ|| :   0.0024   Lambda : -0.703D-07
Largest |displ|/coords:  0.0012 (   4)  0.0011 (   3)  0.0009 (   9)
ancopt converged in         26 cycles
total energy gain (kcal):     -0.0062
================
 final structure:
================
    77
       -150.52871310
C          -3.16454533342250   -1.61449879113017   -0.03080333177407
C           1.61450450096247   -3.16461545787215    0.03072472876766
C           3.16454053998355    1.61446938143656   -0.03079677669184
C          -1.61450230169638    3.16461706061590    0.03073717825469
C          -3.55084601705604   -0.11306866615867   -0.03030827895509
C           0.11307544115528   -3.55092724103437    0.03023395166575
C           3.55084579544049    0.11304219559791   -0.03030501659030
C          -0.11307054225272    3.55091851857482    0.03024112380037
N          -2.86719251854552    0.40746190615868   -1.17899182160338
N          -0.34741897994197   -3.15521480831250   -1.27304672307943
N           2.86716142225088   -0.40748243553192   -1.17896747964435
N           0.40744990421622    2.86728968547980    1.17893629796927
N          -3.15516521463348    0.34742712085452    1.27296931457171
N          -0.40744594323596   -2.86731214904573    1.17892861115551
N           3.15519638495672   -0.34745184693151    1.27298383977775
N           0.34741553163514    3.15521919415965   -1.27304457211076
N          -2.31387615254667   -1.73952211472271   -1.17903128415813
N           1.82783266456064   -2.59649323867283   -1.27273065029622
N           2.31387973186497    1.73951120365590   -1.17902662965112
N          -1.73954964983205    2.31399859344698    1.17899291977738
N          -2.59647096068883   -1.82786980242678    1.27265580942680
N           1.73954944766041   -2.31399220356176    1.17897088819658
N           2.59646299398539    1.82783015544149    1.27266538404955
N          -1.82785315158369    2.59651747819263   -1.27272887475832
C          -2.27358551579842   -0.58427361708682   -1.92952186847005
C           0.64808593532433   -2.51699348099134   -2.00244428347472
C           2.27356809075991    0.58425933566670   -1.92950651717417
C          -0.58431212034076    2.27376419517607    1.92951011690159
C          -2.51669713622712   -0.64803680573245    2.00227610588855
C           0.58431193210987   -2.27376806577975    1.92949254334534
C           2.51677352929686    0.64801844172650    2.00231624039502
C          -0.64809333079015    2.51698133563208   -2.00244080795226
O          -1.93017957664465   -0.49578299228268   -3.07430429897646
O           0.56782549888710   -2.20394703360669   -3.15798573872104
O           1.93016594555865    0.49575392908666   -3.07428874669225
O          -0.49584411439727    1.93049764677965    3.07433345887952
O          -2.20362050999554   -0.56777031908019    3.15781408210702
O           0.49585041284532   -1.93049043576464    3.07431349908741
O           2.20378117783797    0.56776981983984    3.15787991355356
O          -0.56782861847526    2.20392307657743   -3.15797456367344
C          -2.93601816528028    1.76146818154163   -1.65272270141164
C          -1.72074503180662   -2.95831228811589   -1.65354449569588
C           2.93599996920836   -1.76146589096001   -1.65273982188579
C           1.76146292436608    2.93603014651031    1.65266234461128
C          -2.95831647856725    1.72076507582147    1.65345863800788
C          -1.76146461712762   -2.93606336610311    1.65264754468186
C           2.95832350691062   -1.72079052701583    1.65346072434144
C           1.72074718172545    2.95831010969806   -1.65352645684172
H          -3.87324307990089    2.22581168793004   -1.32335882030317
H          -2.31777053782567   -3.81754335031943   -1.32519584524985
H           3.87323091992875   -2.22582485252633   -1.32341365068095
H           2.22586612619400    3.87323647455030    1.32332938209941
H          -3.81757803981590    2.31773915325177    1.32509893210155
H          -2.22585771078570   -3.87327002487592    1.32330326330621
H           3.81757912202407   -2.31777824890821    1.32510677844875
H           2.31776684227138    3.81753378717598   -1.32514877671094
H          -2.87184790028124    1.70364185349743   -2.74792956756428
H          -1.69192678500635   -2.87573845821861   -2.74867998847218
H           2.87179888845372   -1.70361303423259   -2.74794572099364
H           1.70361878668345    2.87183772864730    2.74786726340454
H          -2.87575961391526    1.69195260657365    2.74859406886216
H          -1.70362765546466   -2.87188197047979    2.74785342036597
H           2.87575295185831   -1.69198385342097    2.74859516491183
H           1.69194877419107    2.87575999628107   -2.74866313275075
H          -4.64207489990212    0.04577081560209   -0.14328164452609
H          -0.04575585966633   -4.64216334490998    0.14316912689028
H           4.64207295668525   -0.04579665940437   -0.14330361079864
H           0.04576992360899    4.64215146478524    0.14318814010671
H          -4.04354660136460   -2.28018174174757   -0.14471101398657
H           2.28019584694936   -4.04362097260649    0.14457617017305
H           4.04354521012416    2.28015121823834   -0.14469327595622
H          -2.28018292847206    4.04362758495788    0.14459917197247
B          -0.00002255078229    0.00003830573389    0.00050664258105
H          -0.22926575384729    0.88469613308350   -0.73622956107630
H           0.22930141119320   -0.88486997240069   -0.73584367563237
H           0.88469704889264    0.22958882786463    0.73710703594856
H          -0.88485337464379   -0.22897136387299    0.73708020459831
 
 Bond Distances (Angstroems)
 ---------------------------
C1-C5=1.5503         C1-N17=1.4345        C1-N21=1.4378        C1-H69=1.1085        C2-C6=1.5503         C2-N18=1.4378        
C2-N22=1.4345        C2-H70=1.1085        C3-C7=1.5503         C3-N19=1.4345        C3-N23=1.4378        C3-H71=1.1085        
C4-C8=1.5503         C4-N20=1.4345        C4-N24=1.4378        C4-H72=1.1085        C5-C1=1.5503         C5-N9=1.4345         
C5-N13=1.4378        C5-H65=1.1085        C6-C2=1.5503         C6-N10=1.4378        C6-N14=1.4345        C6-H66=1.1085        
C7-C3=1.5503         C7-N11=1.4345        C7-N15=1.4378        C7-H67=1.1085        C8-C4=1.5503         C8-N12=1.4345        
C8-N16=1.4378        C8-H68=1.1085        N9-C5=1.4345         N9-C25=1.3781        N9-C41=1.4361        N10-C6=1.4378        
N10-C26=1.3894       N10-C42=1.4386       N11-C7=1.4345        N11-C27=1.3781       N11-C43=1.4361       N12-C8=1.4345        
N12-C28=1.3781       N12-C44=1.4361       N13-C5=1.4378        N13-C29=1.3894       N13-C45=1.4386       N14-C6=1.4345        
N14-C30=1.3781       N14-C46=1.4361       N15-C7=1.4378        N15-C31=1.3894       N15-C47=1.4386       N16-C8=1.4378        
N16-C32=1.3894       N16-C48=1.4386       N17-C1=1.4345        N17-C25=1.3782       N17-C42=1.4361       N18-C2=1.4378        
N18-C26=1.3895       N18-C43=1.4386       N19-C3=1.4345        N19-C27=1.3782       N19-C48=1.4361       N20-C4=1.4345        
N20-C28=1.3782       N20-C45=1.4361       N21-C1=1.4378        N21-C29=1.3895       N21-C46=1.4387       N22-C2=1.4345        
N22-C30=1.3782       N22-C47=1.4361       N23-C3=1.4378        N23-C31=1.3895       N23-C44=1.4387       N24-C4=1.4378        
N24-C32=1.3895       N24-C41=1.4387       C25-N9=1.3781        C25-N17=1.3782       C25-O33=1.1985       C26-N10=1.3894       
C26-N18=1.3895       C26-O34=1.1999       C27-N11=1.3781       C27-N19=1.3782       C27-O35=1.1985       C28-N12=1.3781       
C28-N20=1.3782       C28-O36=1.1984       C29-N13=1.3894       C29-N21=1.3895       C29-O37=1.1999       C30-N14=1.3781       
C30-N22=1.3782       C30-O38=1.1984       C31-N15=1.3894       C31-N23=1.3895       C31-O39=1.1999       C32-N16=1.3894       
C32-N24=1.3895       C32-O40=1.1999       O33-C25=1.1985       O34-C26=1.1999       O35-C27=1.1985       O36-C28=1.1984       
O37-C29=1.1999       O38-C30=1.1984       O39-C31=1.1999       O40-C32=1.1999       C41-N9=1.4361        C41-N24=1.4387       
C41-H49=1.0966       C41-H57=1.0986       C42-N10=1.4386       C42-N17=1.4361       C42-H50=1.0966       C42-H58=1.0986       
C43-N11=1.4361       C43-N18=1.4386       C43-H51=1.0966       C43-H59=1.0986       C44-N12=1.4361       C44-N23=1.4387       
C44-H52=1.0966       C44-H60=1.0986       C45-N13=1.4386       C45-N20=1.4361       C45-H53=1.0966       C45-H61=1.0986       
C46-N14=1.4361       C46-N21=1.4387       C46-H54=1.0966       C46-H62=1.0986       C47-N15=1.4386       C47-N22=1.4361       
C47-H55=1.0966       C47-H63=1.0986       C48-N16=1.4386       C48-N19=1.4361       C48-H56=1.0966       C48-H64=1.0986       
H49-C41=1.0966       H50-C42=1.0966       H51-C43=1.0966       H52-C44=1.0966       H53-C45=1.0966       H54-C46=1.0966       
H55-C47=1.0966       H56-C48=1.0966       H57-C41=1.0986       H58-C42=1.0986       H59-C43=1.0986       H60-C44=1.0986       
H61-C45=1.0986       H62-C46=1.0986       H63-C47=1.0986       H64-C48=1.0986       H65-C5=1.1085        H66-C6=1.1085        
H67-C7=1.1085        H68-C8=1.1085        H69-C1=1.1085        H70-C2=1.1085        H71-C3=1.1085        H72-C4=1.1085        
B73-H74=1.1739       B73-H75=1.1738       B73-H76=1.1739       B73-H77=1.1738       H74-B73=1.1739       H75-B73=1.1738       
H76-B73=1.1739       H77-B73=1.1738       
 B  H  Rav=1.1739 sigma=0.0000  Rmin=1.1738  Rmax=1.1739     4
 C  H  Rav=1.1012 sigma=0.0052  Rmin=1.0966  Rmax=1.1085    24
 C  C  Rav=1.5503 sigma=0.0000  Rmin=1.5503  Rmax=1.5503     4
 N  C  Rav=1.4191 sigma=0.0252  Rmin=1.3781  Rmax=1.4387    48
 O  C  Rav=1.1992 sigma=0.0007  Rmin=1.1984  Rmax=1.1999     8
 
 selected bond angles (degree)
 --------------------
N17-C1-C5=103.44               N21-C1-C5=104.00               N21-C1-N17=118.58              H69-C1-C5=112.58               
H69-C1-N17=109.61              H69-C1-N21=108.50              N18-C2-C6=104.00               N22-C2-C6=103.44               
N22-C2-N18=118.58              H70-C2-C6=112.58               H70-C2-N18=108.50              H70-C2-N22=109.61              
N19-C3-C7=103.44               N23-C3-C7=104.00               N23-C3-N19=118.58              H71-C3-C7=112.58               
H71-C3-N19=109.61              H71-C3-N23=108.50              N20-C4-C8=103.44               N24-C4-C8=104.00               
N24-C4-N20=118.58              H72-C4-C8=112.58               H72-C4-N20=109.61              H72-C4-N24=108.50              
N9-C5-C1=103.44                N13-C5-C1=104.00               N13-C5-N9=118.59               H65-C5-C1=112.58               
H65-C5-N9=109.61               H65-C5-N13=108.51              N10-C6-C2=104.00               N14-C6-C2=103.44               
N14-C6-N10=118.59              H66-C6-C2=112.58               H66-C6-N10=108.51              H66-C6-N14=109.61              
N11-C7-C3=103.44               N15-C7-C3=104.00               N15-C7-N11=118.59              H67-C7-C3=112.58               
H67-C7-N11=109.61              H67-C7-N15=108.51              N12-C8-C4=103.44               N16-C8-C4=104.00               
N16-C8-N12=118.59              H68-C8-C4=112.58               H68-C8-N12=109.61              H68-C8-N16=108.51              
C25-N9-C5=112.35               C41-N9-C5=125.69               C41-N9-C25=121.30              C26-N10-C6=111.89              
C42-N10-C6=125.67              C42-N10-C26=118.83             
 
 selected dihedral angles (degree)
 ---------------------------------
N9-C5-C1-N17=  0.05           N9-C5-C1-N21=124.55           N9-C5-C1-H69=241.81           N13-C5-C1-N17=235.53          
N13-C5-C1-N21=  0.04          N13-C5-C1-H69=117.29          H65-C5-C1-N17=118.28          H65-C5-C1-N21=242.79          
H65-C5-C1-H69=  0.04          N10-C6-C2-N18=359.96          N10-C6-C2-N22=124.47          N10-C6-C2-H70=242.71          
N14-C6-C2-N18=235.45          N14-C6-C2-N22=359.95          N14-C6-C2-H70=118.20          H66-C6-C2-N18=117.21          
H66-C6-C2-N22=241.72          H66-C6-C2-H70=359.96          N11-C7-C3-N19=  0.04          N11-C7-C3-N23=124.55          
N11-C7-C3-H71=241.80          N15-C7-C3-N19=235.53          N15-C7-C3-N23=  0.04          N15-C7-C3-H71=117.29          
H67-C7-C3-N19=118.28          H67-C7-C3-N23=242.78          H67-C7-C3-H71=  0.04          N12-C8-C4-N20=359.96          
N12-C8-C4-N24=235.45          N12-C8-C4-H72=118.20          N16-C8-C4-N20=124.47          N16-C8-C4-N24=359.96          
N16-C8-C4-H72=242.71          H68-C8-C4-N20=241.72          H68-C8-C4-N24=117.21          H68-C8-C4-H72=359.96          
C25-N9-C5-C1=  7.02           C25-N9-C5-N13=121.44          C25-N9-C5-H65=246.74          C41-N9-C5-C1=177.73           
C41-N9-C5-N13=292.15          C41-N9-C5-H65= 57.45          C26-N10-C6-C2=356.21          C26-N10-C6-N14=110.33         
C26-N10-C6-H66=236.16         C42-N10-C6-C2=198.05          C42-N10-C6-N14=312.17         C42-N10-C6-H66= 78.00         
 
 CMA Distance (Angstroems)
 ---------------------------
R(CMA):  0.0005
 
             =======================================
             |                                     |
             |        S C C  calculation           |
             |                                     |
             =======================================
 #proc     :                      1
 Ncao      :                    224
 Nao       :                    224
 Nel       :                    256
 T(el)     :   300.0
 intcut    :    25.0
 scfconv   :  0.100E-05
   qconv   :  0.200E-04
 intneglect:  0.100E-07
 broydamp  :      0.400
 Nshell    :                    126
 iter      E             dE          RMSdq      gap      omega  full diag
   1   -151.9343788 -0.151934E+03  0.173E-05    2.88       0.0  T
   2   -151.9343788 -0.824230E-11  0.103E-05    2.88    1111.5  T
   3   -151.9343788 -0.252953E-11  0.687E-06    2.88    1659.0  T
speedup  8.26
cpu  time for SCC    1.52 s
wall time for SCC    0.18 s

          eigenvalues
 #    :         116        117        118        119        120        121        122        123
 occ. :        2.000      2.000      2.000      2.000      2.000      2.000      2.000      2.000
 eps  :        -7.602     -7.568     -7.423     -7.423     -7.390     -7.363     -7.302     -7.302
 #    :         124        125        126        127        128        129        130        131
 occ. :        2.000      2.000      2.000      2.000      2.000      0.000      0.000      0.000
 eps  :        -7.258     -7.252     -5.199     -4.985     -4.985     -2.106     -1.826     -1.788
 #    :         132        133        134        135        136        137        138        139
 occ. :        0.000      0.000      0.000      0.000      0.000      0.000      0.000      0.000
 eps  :        -1.787     -1.727     -1.727     -1.655     -1.573      2.663      2.858      2.864
 
 
 Mulliken/CM5 charges        n(s)   n(p)   n(d)
     1 C   0.06503  0.14569   1.080  2.855  0.000
     2 C   0.06503  0.14569   1.080  2.855  0.000
     3 C   0.06503  0.14569   1.080  2.855  0.000
     4 C   0.06503  0.14569   1.080  2.855  0.000
     5 C   0.06502  0.14568   1.080  2.855  0.000
     6 C   0.06502  0.14569   1.080  2.855  0.000
     7 C   0.06502  0.14569   1.080  2.855  0.000
     8 C   0.06502  0.14569   1.080  2.855  0.000
     9 N  -0.03216 -0.27926   1.125  3.908  0.000
    10 N  -0.04715 -0.29261   1.149  3.898  0.000
    11 N  -0.03216 -0.27926   1.125  3.908  0.000
    12 N  -0.03216 -0.27926   1.125  3.908  0.000
    13 N  -0.04718 -0.29264   1.149  3.898  0.000
    14 N  -0.03216 -0.27926   1.125  3.908  0.000
    15 N  -0.04717 -0.29263   1.149  3.898  0.000
    16 N  -0.04715 -0.29261   1.149  3.898  0.000
    17 N  -0.03219 -0.27928   1.125  3.907  0.000
    18 N  -0.04728 -0.29272   1.149  3.898  0.000
    19 N  -0.03219 -0.27928   1.125  3.907  0.000
    20 N  -0.03219 -0.27929   1.125  3.908  0.000
    21 N  -0.04731 -0.29275   1.150  3.898  0.000
    22 N  -0.03219 -0.27928   1.125  3.908  0.000
    23 N  -0.04731 -0.29275   1.150  3.898  0.000
    24 N  -0.04729 -0.29273   1.150  3.898  0.000
    25 C   0.23298  0.40485   1.057  2.710  0.000
    26 C   0.23057  0.39617   1.063  2.707  0.000
    27 C   0.23299  0.40485   1.057  2.710  0.000
    28 C   0.23299  0.40486   1.057  2.710  0.000
    29 C   0.23055  0.39612   1.063  2.707  0.000
    30 C   0.23299  0.40486   1.057  2.710  0.000
    31 C   0.23055  0.39612   1.063  2.707  0.000
    32 C   0.23057  0.39616   1.063  2.707  0.000
    33 O  -0.40589 -0.44935   1.724  4.682  0.000
    34 O  -0.40896 -0.45333   1.723  4.686  0.000
    35 O  -0.40589 -0.44935   1.724  4.682  0.000
    36 O  -0.40588 -0.44934   1.724  4.682  0.000
    37 O  -0.40900 -0.45337   1.723  4.686  0.000
    38 O  -0.40588 -0.44934   1.724  4.682  0.000
    39 O  -0.40900 -0.45338   1.723  4.686  0.000
    40 O  -0.40897 -0.45334   1.723  4.686  0.000
    41 C   0.02971  0.05533   1.073  2.897  0.000
    42 C   0.02970  0.05534   1.073  2.897  0.000
    43 C   0.02971  0.05533   1.073  2.897  0.000
    44 C   0.02970  0.05532   1.073  2.897  0.000
    45 C   0.02970  0.05533   1.073  2.897  0.000
    46 C   0.02970  0.05532   1.073  2.897  0.000
    47 C   0.02970  0.05533   1.073  2.897  0.000
    48 C   0.02970  0.05534   1.073  2.897  0.000
    49 H   0.03390  0.11099   0.966  0.000  0.000
    50 H   0.03386  0.11095   0.966  0.000  0.000
    51 H   0.03390  0.11099   0.966  0.000  0.000
    52 H   0.03390  0.11098   0.966  0.000  0.000
    53 H   0.03386  0.11094   0.966  0.000  0.000
    54 H   0.03390  0.11098   0.966  0.000  0.000
    55 H   0.03386  0.11094   0.966  0.000  0.000
    56 H   0.03386  0.11095   0.966  0.000  0.000
    57 H   0.07247  0.16235   0.928  0.000  0.000
    58 H   0.07248  0.16238   0.928  0.000  0.000
    59 H   0.07247  0.16235   0.928  0.000  0.000
    60 H   0.07247  0.16236   0.928  0.000  0.000
    61 H   0.07249  0.16239   0.928  0.000  0.000
    62 H   0.07247  0.16236   0.928  0.000  0.000
    63 H   0.07249  0.16239   0.928  0.000  0.000
    64 H   0.07248  0.16238   0.928  0.000  0.000
    65 H   0.02357  0.10233   0.976  0.000  0.000
    66 H   0.02357  0.10233   0.976  0.000  0.000
    67 H   0.02357  0.10233   0.976  0.000  0.000
    68 H   0.02357  0.10233   0.976  0.000  0.000
    69 H   0.02356  0.10231   0.976  0.000  0.000
    70 H   0.02356  0.10231   0.976  0.000  0.000
    71 H   0.02356  0.10231   0.976  0.000  0.000
    72 H   0.02356  0.10231   0.976  0.000  0.000
    73 B  -0.16103 -0.59673   0.996  2.165  0.000
    74 H  -0.14895 -0.00860   1.149  0.000  0.000
    75 H  -0.14894 -0.00858   1.149  0.000  0.000
    76 H  -0.14890 -0.00854   1.149  0.000  0.000
    77 H  -0.14889 -0.00851   1.149  0.000  0.000
 
 Wiberg/Mayer (AO) data. WBOs > 0.1 written file <wbo>
 largest (>0.05) Wiberg bond orders for each atom
           total WBO             WBO to atom ...
     1  C   3.978    N   17 0.997    N   21 0.994    C    5 0.957    H   69 0.947
     2  C   3.978    N   22 0.997    N   18 0.994    C    6 0.957    H   70 0.947
     3  C   3.978    N   19 0.997    N   23 0.994    C    7 0.957    H   71 0.947
     4  C   3.978    N   20 0.997    N   24 0.994    C    8 0.957    H   72 0.947
     5  C   3.978    N    9 0.997    N   13 0.994    C    1 0.957    H   65 0.947
     6  C   3.978    N   14 0.997    N   10 0.994    C    2 0.957    H   66 0.947
     7  C   3.978    N   11 0.997    N   15 0.994    C    3 0.957    H   67 0.947
     8  C   3.978    N   12 0.997    N   16 0.994    C    4 0.957    H   68 0.947
     9  N   3.422    C   25 1.099    C   41 0.999    C    5 0.997    O   33 0.146
    10  N   3.380    C   26 1.071    C   42 0.995    C    6 0.994    O   34 0.135
    11  N   3.422    C   27 1.099    C   43 0.999    C    7 0.997    O   35 0.146
    12  N   3.422    C   28 1.099    C   44 0.999    C    8 0.997    O   36 0.146
    13  N   3.380    C   29 1.070    C   45 0.995    C    5 0.994    O   37 0.134
    14  N   3.422    C   30 1.099    C   46 0.999    C    6 0.997    O   38 0.146
    15  N   3.380    C   31 1.070    C   47 0.995    C    7 0.994    O   39 0.134
    16  N   3.380    C   32 1.071    C   48 0.995    C    8 0.994    O   40 0.135
    17  N   3.422    C   25 1.099    C   42 0.999    C    1 0.997    O   33 0.146
    18  N   3.380    C   26 1.070    C   43 0.995    C    2 0.994    O   34 0.134
    19  N   3.422    C   27 1.099    C   48 0.999    C    3 0.997    O   35 0.146
    20  N   3.422    C   28 1.099    C   45 0.999    C    4 0.997    O   36 0.146
    21  N   3.379    C   29 1.070    C   46 0.995    C    1 0.994    O   37 0.134
    22  N   3.422    C   30 1.099    C   47 0.999    C    2 0.997    O   38 0.146
    23  N   3.380    C   31 1.070    C   44 0.995    C    3 0.994    O   39 0.134
    24  N   3.380    C   32 1.070    C   41 0.995    C    4 0.994    O   40 0.134
    25  C   3.966    O   33 1.695    N    9 1.099    N   17 1.099
    26  C   3.963    O   34 1.688    N   10 1.071    N   18 1.070    H   75 0.056
    27  C   3.966    O   35 1.695    N   11 1.099    N   19 1.099
    28  C   3.966    O   36 1.695    N   12 1.099    N   20 1.099
    29  C   3.963    O   37 1.688    N   13 1.070    N   21 1.070    H   77 0.056
    30  C   3.966    O   38 1.695    N   14 1.099    N   22 1.099
    31  C   3.963    O   39 1.688    N   15 1.070    N   23 1.070    H   76 0.056
    32  C   3.963    O   40 1.688    N   16 1.071    N   24 1.070    H   74 0.056
    33  O   2.049    C   25 1.695    N   17 0.146    N    9 0.146
    34  O   2.046    C   26 1.688    N   10 0.135    N   18 0.134
    35  O   2.049    C   27 1.695    N   19 0.146    N   11 0.146
    36  O   2.049    C   28 1.695    N   20 0.146    N   12 0.146
    37  O   2.046    C   29 1.688    N   13 0.134    N   21 0.134
    38  O   2.049    C   30 1.695    N   22 0.146    N   14 0.146
    39  O   2.046    C   31 1.688    N   15 0.134    N   23 0.134
    40  O   2.046    C   32 1.688    N   16 0.135    N   24 0.134
    41  C   3.970    N    9 0.999    N   24 0.995    H   49 0.964    H   57 0.956
    42  C   3.970    N   17 0.999    N   10 0.995    H   50 0.964    H   58 0.956
    43  C   3.970    N   11 0.999    N   18 0.995    H   51 0.964    H   59 0.956
    44  C   3.970    N   12 0.999    N   23 0.995    H   52 0.964    H   60 0.956
    45  C   3.970    N   20 0.999    N   13 0.995    H   53 0.964    H   61 0.956
    46  C   3.970    N   14 0.999    N   21 0.995    H   54 0.964    H   62 0.956
    47  C   3.970    N   22 0.999    N   15 0.995    H   55 0.964    H   63 0.956
    48  C   3.970    N   19 0.999    N   16 0.995    H   56 0.964    H   64 0.956
    49  H   0.998    C   41 0.964
    50  H   0.998    C   42 0.964
    51  H   0.998    C   43 0.964
    52  H   0.998    C   44 0.964
    53  H   0.998    C   45 0.964
    54  H   0.998    C   46 0.964
    55  H   0.998    C   47 0.964
    56  H   0.998    C   48 0.964
    57  H   0.994    C   41 0.956
    58  H   0.994    C   42 0.956
    59  H   0.994    C   43 0.956
    60  H   0.994    C   44 0.956
    61  H   0.994    C   45 0.956
    62  H   0.994    C   46 0.956
    63  H   0.994    C   47 0.956
    64  H   0.994    C   48 0.956
    65  H   0.999    C    5 0.947
    66  H   0.999    C    6 0.947
    67  H   0.999    C    7 0.947
    68  H   0.999    C    8 0.947
    69  H   0.999    C    1 0.947
    70  H   0.999    C    2 0.947
    71  H   0.999    C    3 0.947
    72  H   0.999    C    4 0.947
    73  B   3.767    H   75 0.884    H   74 0.884    H   76 0.884    H   77 0.884
    74  H   0.978    B   73 0.884    C   32 0.056
    75  H   0.978    B   73 0.884    C   26 0.056
    76  H   0.978    B   73 0.884    C   31 0.056
    77  H   0.978    B   73 0.884    C   29 0.056
 density
 
 cube file module (SG, 7/16)
 cube_pthr     :   0.005
 cube_step     :   0.400
 non-zero P (%):  33.857   nmat:    8532
 Grid Boundaries (x y z) :
   11.7722457247790        11.7723940835728        8.96752761740661     
  -11.7722493969263       -11.7724165337527       -8.96772759797170     
 Total # of points                156645
 writing density.cub
 N    (numint) : ******
cpu  time for cube   46.85 s
wall time for cube   45.77 s
 
molecular dipole:
                 x           y           z       tot (Debye)
 q only:        0.000      -0.000      -0.001
   full:        0.000      -0.000      -0.001       0.004
molecular quadrupole (traceless):
                xx          xy          yy          xz          yz          zz
 q only:       49.826      -0.001      49.830      -0.001      -0.001     -99.655
  q+dip:       58.456      -0.002      58.463      -0.002       0.000    -116.919
   full:       59.679      -0.002      59.686      -0.002      -0.000    -119.364
 SCC converged in                      3  cycles
 
SCC energy    :    -151.9343788
rep           :       1.5294187
ES            :       0.1467154
AES           :      -0.0045001
disp          :      -0.1237529
XB            :       0.0000000
fix           :       0.0000000
total E       :    -150.5287131
atomizationE  :      20.4513064    12833.39
(atE without considerung molecular charge,
 total energy contains solvation terms)
H-L gap (eV)  :          2.8793
 !!!!!!!!!!!!!!!!!!!!!!!!!!!!!!!!!!!
 ! Note: the input coordinates are !
 ! NOT overwritten. The optimized  !
 ! ones are on file <xtbopt.coord> !
 ! (or on <xtbopt.xyz> if it was a !
 ! xyz file)                       !
 !!!!!!!!!!!!!!!!!!!!!!!!!!!!!!!!!!!
 
speedup  1.97
cpu  time for all    3 m 29.0 s
wall time for all    1 m 45.8 s
