 
        ______________________________________
       |                                      |
       |           ==================         |
       |                 x T B                |
       |           ==================         |
       |               S. Grimme              |
       |        Universitaet Bonn, MCTC       |
       |         2015-18, Version 5.0         |
       |      Sat Jan 20 11:00:33 CET 2018    |
       |______________________________________|
 
        This code comes without any warranty
        for non-commercial, academia use only.
        Cite GFN-xTB work as:
        S. Grimme, C. Bannwarth, P. Shushkov
        JCTC, 13 (2017) 1989-2009
        for GFN2:
        C. Bannwarth, S. Ehlert, S. Grimme
        to be published.
        sTDA-xTB:
        S. Grimme  &  C. Bannwarth, JCP 145 (2016) 054103
        in the mass-spec context additionally:
        V. Asgeirsson, C.Bauer, S. Grimme, Chem. Sci. 8 (2017) 4879
 
        with help from
        P. Shushkov, G. Brandenburg, S. Dohm, J. Pisarek,
        F. März, M. Checinski, S. Ehrlich, S. Spicher, 
        P. Pracht, E. Caldeweyher, S. Ehlert, and C. Bannwarth.
 
        usage        :
        xtb <coord_file> [options]
        where <coord_file> is a valid file of TM)
        (*coord, Bohr) or xmol (*xyz, Angstroem)
        format.

        options:
        -chrg <int>   : molecular charge
        -uhf  <int>   : # of unpaired electrons(=2*S)
        -nox          : skip second, extended part in sTDA-xTB
        -pop          : do population analysis
                      : (default for -nox)
        -mowr <real>  : cut MO write above (def.3 Eh)
        -molden       : write formatted molden file
        -parx <file>  : read parameters for sTDA-xTB
                        calc (def:~/.param_stda2.xtb)
        -parv <file>  : read parameters for vTB part in
                        sTDA-xTB (def: ~/.param_stda1.xtb)
        -xtemp <real> : el. temp for xTB (def. 0 K)
        -etemp <real> : el. temp for GFN (def. 300 K)
        -fod          : do a xTB calc. of the FOD
                        and write molden.input file 
                        with appropriate occupations
                        for plotting. Def. T=12500 K
 
        -gfn          : use GFN-xTB
        -grad         : GFN-xTB gradient
        -acc <real>   : GFN-xTB accuracy (def. 1.0)
        -opt [level]  : optimize at GFN-xTB
                      : level=crude,vloose,loose,
                      :       tight,vtight
        -hess         : compute Hessian at GFN-xTB
        -ohess        : optimize and compute Hessian
        -omd          : optimize and do MD
        -siman        : conformational search
        -screen       : opt. loop over ensemble
        -gmd          : annealed MD for GMD procedure
        -modef        : vib mode following
        -gbsa [string1] [string2]
                        use GBSA implicit solvent
                        for solvent [string1] and
                        solvation state [string2]=
                        reference, bar1M (default=1M)
        additional GFN/opt/MD/siman options read from
        $XTBHOME/.xtbrc or $set in coordinate file
 
       spin and charge state information can be on:
       <.CHRG> (charge) and <.UHF> (=nalpha-nbeta)
       -uhf and -chrg override the file info.
       useful machine settings:
       setenv MKL_NUM_THREADS <NCORE_ON_YOUR_MACHINE>
       setenv OMP_STACKSIZE 500m
       limit stacksize unlimited
 
       total energies in Eh, gaps/HL energies in eV
       please read REVISION and HOWTO files carefully
 =============================
  # OMP threads =                     1
 =============================
 
 xtbhome directory:/Applications/xtb/
 
 argument                      1 :-chrg
 argument                      2 :-1
 argument                      3 :-gmd
 
 number of atoms            :    77
 number of electrons        :   256
 charge                     : -1
 spin                       : 0.0
 first test random number   :  0.1664
 
 
KAB for pair M(3d)-M(3d) :  1.1000
KAB for pair M(4d)-M(4d) :  1.2000
KAB for pair M(5d)-M(5d) :  1.2000
 -----------------------------------------
  G F N (Geometry, Frequency, Non-covalent)
        parametrization, version                     2
 /Applications/xtb/.param_gfn2.xtb
 -----------------------------------------
      method parameters     
 k(s)        :  1.8500
 k(p)        :  2.2500
 k(d)        :  2.0000
 k(f)        :  0.0000
 alphaj      :  1.0000
 kEN (H0ij)  : -2.3620
 D3 a1       :  0.6900
 D3 a2       :  4.0530
 D3 s8       :  2.0000
 D3atm       :  1.0000
 AESdamp     :  5.5000
 AESrad      :  1.9230
 expscalexp  : -0.2500
 
     -------------------------
     ! NO SOLVENT MODEL USED !
     -------------------------
 
 doing EN charges ...
 sum q : -0.1000000D+01
 point charge moment (au)
     X       Y       Z   
  -0.0000  -0.0000  -0.0001  total (Debye):    0.000
 
            Z      q(EN)   CN      Cart. coordinates
     1  C   4.0    0.20    4.35    -5.98012    -3.05096    -0.05821
     2  C   4.0    0.20    4.35     3.05097    -5.98026     0.05806
     3  C   4.0    0.20    4.35     5.98011     3.05090    -0.05820
     4  C   4.0    0.20    4.35    -3.05097     5.98026     0.05808
     5  C   4.0    0.20    4.35    -6.71013    -0.21367    -0.05727
     6  C   4.0    0.20    4.35     0.21368    -6.71028     0.05713
     7  C   4.0    0.20    4.35     6.71013     0.21362    -0.05727
     8  C   4.0    0.20    4.35    -0.21367     6.71026     0.05715
     9  N   5.0   -0.23    3.25    -5.41821     0.76999    -2.22797
    10  N   5.0   -0.23    3.23    -0.65653    -5.96249    -2.40571
    11  N   5.0   -0.23    3.25     5.41815    -0.77003    -2.22793
    12  N   5.0   -0.23    3.25     0.76997     5.41839     2.22787
    13  N   5.0   -0.23    3.23    -5.96240     0.65654     2.40556
    14  N   5.0   -0.23    3.25    -0.76996    -5.41843     2.22785
    15  N   5.0   -0.23    3.23     5.96246    -0.65659     2.40559
    16  N   5.0   -0.23    3.23     0.65652     5.96250    -2.40571
    17  N   5.0   -0.23    3.25    -4.37259    -3.28722    -2.22805
    18  N   5.0   -0.23    3.23     3.45410    -4.90666    -2.40511
    19  N   5.0   -0.23    3.25     4.37260     3.28720    -2.22804
    20  N   5.0   -0.23    3.25    -3.28727     4.37282     2.22797
    21  N   5.0   -0.23    3.23    -4.90662    -3.45417     2.40497
    22  N   5.0   -0.23    3.25     3.28727    -4.37281     2.22793
    23  N   5.0   -0.23    3.23     4.90660     3.45410     2.40499
    24  N   5.0   -0.23    3.23    -3.45414     4.90671    -2.40511
    25  C   4.0    0.45    3.30    -4.29645    -1.10412    -3.64627
    26  C   4.0    0.45    3.30     1.22470    -4.75643    -3.78407
    27  C   4.0    0.45    3.30     4.29642     1.10409    -3.64624
    28  C   4.0    0.45    3.30    -1.10419     4.29679     3.64625
    29  C   4.0    0.45    3.30    -4.75587    -1.22461     3.78375
    30  C   4.0    0.45    3.30     1.10419    -4.29680     3.64621
    31  C   4.0    0.45    3.30     4.75601     1.22458     3.78383
    32  C   4.0    0.45    3.30    -1.22472     4.75640    -3.78406
    33  O   6.0   -0.39    1.07    -3.64751    -0.93689    -5.80959
    34  O   6.0   -0.38    1.07     1.07303    -4.16486    -5.96773
    35  O   6.0   -0.39    1.07     3.64748     0.93684    -5.80956
    36  O   6.0   -0.39    1.07    -0.93701     3.64811     5.80965
    37  O   6.0   -0.38    1.07    -4.16424    -1.07293     5.96740
    38  O   6.0   -0.39    1.07     0.93702    -3.64810     5.80961
    39  O   6.0   -0.38    1.07     4.16454     1.07293     5.96753
    40  O   6.0   -0.38    1.07    -1.07304     4.16481    -5.96771
    41  C   4.0    0.24    4.16    -5.54827     3.32869    -3.12319
    42  C   4.0    0.24    4.16    -3.25174    -5.59040    -3.12475
    43  C   4.0    0.24    4.16     5.54824    -3.32869    -3.12323
    44  C   4.0    0.24    4.16     3.32868     5.54829     3.12308
    45  C   4.0    0.24    4.16    -5.59041     3.25177     3.12458
    46  C   4.0    0.24    4.16    -3.32869    -5.54836     3.12305
    47  C   4.0    0.24    4.16     5.59042    -3.25182     3.12459
    48  C   4.0    0.24    4.16     3.25174     5.59040    -3.12471
    49  H   1.0   -0.06    1.00    -7.31937     4.20617    -2.50079
    50  H   1.0   -0.06    1.00    -4.37995    -7.21411    -2.50426
    51  H   1.0   -0.06    1.00     7.31934    -4.20620    -2.50089
    52  H   1.0   -0.06    1.00     4.20628     7.31936     2.50073
    53  H   1.0   -0.06    1.00    -7.21418     4.37989     2.50407
    54  H   1.0   -0.06    1.00    -4.20626    -7.31942     2.50068
    55  H   1.0   -0.06    1.00     7.21418    -4.37997     2.50409
    56  H   1.0   -0.06    1.00     4.37994     7.21409    -2.50417
    57  H   1.0   -0.06    1.01    -5.42701     3.21942    -5.19283
    58  H   1.0   -0.06    1.01    -3.19728    -5.43436    -5.19425
    59  H   1.0   -0.06    1.01     5.42691    -3.21936    -5.19286
    60  H   1.0   -0.06    1.01     3.21937     5.42699     5.19272
    61  H   1.0   -0.06    1.01    -5.43440     3.19733     5.19409
    62  H   1.0   -0.06    1.01    -3.21939    -5.42707     5.19269
    63  H   1.0   -0.06    1.01     5.43438    -3.19739     5.19409
    64  H   1.0   -0.06    1.01     3.19732     5.43440    -5.19422
    65  H   1.0   -0.06    1.00    -8.77225     0.08649    -0.27076
    66  H   1.0   -0.06    1.00    -0.08647    -8.77242     0.27055
    67  H   1.0   -0.06    1.00     8.77225    -0.08654    -0.27080
    68  H   1.0   -0.06    1.00     0.08649     8.77239     0.27059
    69  H   1.0   -0.06    1.00    -7.64119    -4.30892    -0.27346
    70  H   1.0   -0.06    1.00     4.30895    -7.64134     0.27321
    71  H   1.0   -0.06    1.00     7.64119     4.30886    -0.27343
    72  H   1.0   -0.06    1.00    -4.30892     7.64135     0.27325
    73  B   3.0    0.29    0.00    -0.00004     0.00007     0.00096
    74  H   1.0   -0.07    0.99    -0.43325     1.67183    -1.39127
    75  H   1.0   -0.07    0.99     0.43332    -1.67216    -1.39054
    76  H   1.0   -0.07    0.99     1.67183     0.43386     1.39293
    77  H   1.0   -0.07    0.99    -1.67213    -0.43269     1.39288
 
  Z AO/shell   Hii/eV     exponent
  1     Sat Jan 20 17:55:17 CET 2018    EN: 2.200 GAM: 0.531  GM3:-0.4370
     1s    -10.248275    1.266496
  5     Sat Jan 20 20:36:30 CET 2018    EN: 2.040 GAM: 0.259  GM3:-0.0199
     2s    -11.354327    1.787169
     2p     -7.274615    1.308840
  6     Sat Jan 20 17:55:17 CET 2018    EN: 2.550 GAM: 0.417  GM3:-0.0654
     2s    -15.292509    2.030071
     2p    -10.408465    1.801676
  7     Sat Jan 20 17:55:17 CET 2018    EN: 3.040 GAM: 0.444  GM3:-0.1301
     2s    -16.687725    2.226550
     2p    -13.175143    1.981921
  8     Sat Jan 20 17:55:17 CET 2018    EN: 3.440 GAM: 0.468  GM3: 0.0937
     2s    -20.924998    2.442614
     2p    -15.243501    2.233841
 no old-style atom pair restraing (fixing) potential
 
 molecular fragmentation (1/2 indicates fragments):
11111111111111111111111111111111111111111111111111111111111111111111111122222
# atoms in fragment 1/2:    72     5
 fragment masses (1/2) :      664.56       14.84
CMA distance (Bohr)    :   0.001
constraining FC (au)   :  0.0500
 
             =======================================
             |                                     |
             |        S C C  calculation           |
             |                                     |
             =======================================
 #proc     :                      1
 Ncao      :                    224
 Nao       :                    224
 Nel       :                    256
 T(el)     :   300.0
 intcut    :    25.0
 scfconv   :  0.100E-05
   qconv   :  0.200E-04
 intneglect:  0.100E-07
 broydamp  :      0.400
 Nshell    :                    126
 iter      E             dE          RMSdq      gap      omega  full diag
   1   -151.1928210 -0.151193E+03  0.991E+00    4.55       0.0  T
   2   -151.8183212 -0.625500E+00  0.532E+00    3.15       1.0  T
   3   -151.7924610  0.258603E-01  0.236E+00    2.66       1.0  T
   4   -151.9257114 -0.133250E+00  0.553E-01    2.84       1.0  T
   5   -151.9337775 -0.806611E-02  0.210E-01    2.88       1.0  T
   6   -151.9342926 -0.515116E-03  0.828E-02    2.90       1.0  T
   7   -151.9343610 -0.683909E-04  0.293E-02    2.87       1.0  T
   8   -151.9343735 -0.124302E-04  0.105E-02    2.88       1.1  T
   9   -151.9343768 -0.332445E-05  0.627E-03    2.88       1.8  T
  10   -151.9343785 -0.167019E-05  0.308E-03    2.88       3.7  T
  11   -151.9343788 -0.379985E-06  0.572E-04    2.88      19.9  T
  12   -151.9343788 -0.622890E-09  0.383E-04    2.88      29.7  T
  13   -151.9343788 -0.929072E-08  0.103E-04    2.88     111.0  T
  14   -151.9343788 -0.327788E-09  0.329E-05    2.88     346.5  T
speedup  7.37
cpu  time for SCC    3.32 s
wall time for SCC    0.45 s

          eigenvalues
 #    :         116        117        118        119        120        121        122        123
 occ. :        2.000      2.000      2.000      2.000      2.000      2.000      2.000      2.000
 eps  :        -7.602     -7.568     -7.423     -7.423     -7.390     -7.363     -7.302     -7.302
 #    :         124        125        126        127        128        129        130        131
 occ. :        2.000      2.000      2.000      2.000      2.000      0.000      0.000      0.000
 eps  :        -7.258     -7.252     -5.199     -4.985     -4.985     -2.106     -1.826     -1.788
 #    :         132        133        134        135        136        137        138        139
 occ. :        0.000      0.000      0.000      0.000      0.000      0.000      0.000      0.000
 eps  :        -1.787     -1.727     -1.727     -1.655     -1.573      2.663      2.858      2.864
 
 
 Mulliken/CM5 charges        n(s)   n(p)   n(d)
     1 C   0.06503  0.14569   1.080  2.855  0.000
     2 C   0.06503  0.14569   1.080  2.855  0.000
     3 C   0.06503  0.14569   1.080  2.855  0.000
     4 C   0.06503  0.14569   1.080  2.855  0.000
     5 C   0.06502  0.14569   1.080  2.855  0.000
     6 C   0.06502  0.14569   1.080  2.855  0.000
     7 C   0.06502  0.14569   1.080  2.855  0.000
     8 C   0.06502  0.14569   1.080  2.855  0.000
     9 N  -0.03216 -0.27926   1.125  3.908  0.000
    10 N  -0.04715 -0.29261   1.149  3.898  0.000
    11 N  -0.03216 -0.27926   1.125  3.908  0.000
    12 N  -0.03216 -0.27927   1.125  3.908  0.000
    13 N  -0.04718 -0.29264   1.149  3.898  0.000
    14 N  -0.03216 -0.27926   1.125  3.908  0.000
    15 N  -0.04717 -0.29263   1.149  3.898  0.000
    16 N  -0.04715 -0.29261   1.149  3.898  0.000
    17 N  -0.03220 -0.27928   1.125  3.908  0.000
    18 N  -0.04728 -0.29272   1.149  3.898  0.000
    19 N  -0.03219 -0.27928   1.125  3.908  0.000
    20 N  -0.03219 -0.27929   1.125  3.908  0.000
    21 N  -0.04731 -0.29275   1.150  3.898  0.000
    22 N  -0.03219 -0.27928   1.125  3.908  0.000
    23 N  -0.04731 -0.29275   1.150  3.898  0.000
    24 N  -0.04729 -0.29272   1.150  3.898  0.000
    25 C   0.23299  0.40485   1.057  2.710  0.000
    26 C   0.23057  0.39617   1.063  2.707  0.000
    27 C   0.23299  0.40485   1.057  2.710  0.000
    28 C   0.23299  0.40486   1.057  2.710  0.000
    29 C   0.23055  0.39612   1.063  2.707  0.000
    30 C   0.23300  0.40486   1.057  2.710  0.000
    31 C   0.23055  0.39612   1.063  2.707  0.000
    32 C   0.23057  0.39616   1.063  2.707  0.000
    33 O  -0.40589 -0.44935   1.724  4.682  0.000
    34 O  -0.40896 -0.45333   1.723  4.686  0.000
    35 O  -0.40589 -0.44935   1.724  4.682  0.000
    36 O  -0.40588 -0.44934   1.724  4.682  0.000
    37 O  -0.40900 -0.45337   1.723  4.686  0.000
    38 O  -0.40588 -0.44934   1.724  4.682  0.000
    39 O  -0.40900 -0.45338   1.723  4.686  0.000
    40 O  -0.40897 -0.45334   1.723  4.686  0.000
    41 C   0.02971  0.05533   1.073  2.897  0.000
    42 C   0.02970  0.05534   1.073  2.897  0.000
    43 C   0.02971  0.05533   1.073  2.897  0.000
    44 C   0.02970  0.05532   1.073  2.897  0.000
    45 C   0.02970  0.05533   1.073  2.897  0.000
    46 C   0.02970  0.05532   1.073  2.897  0.000
    47 C   0.02970  0.05533   1.073  2.897  0.000
    48 C   0.02970  0.05534   1.073  2.897  0.000
    49 H   0.03390  0.11099   0.966  0.000  0.000
    50 H   0.03386  0.11095   0.966  0.000  0.000
    51 H   0.03390  0.11099   0.966  0.000  0.000
    52 H   0.03390  0.11098   0.966  0.000  0.000
    53 H   0.03386  0.11094   0.966  0.000  0.000
    54 H   0.03390  0.11098   0.966  0.000  0.000
    55 H   0.03386  0.11094   0.966  0.000  0.000
    56 H   0.03386  0.11095   0.966  0.000  0.000
    57 H   0.07247  0.16235   0.928  0.000  0.000
    58 H   0.07249  0.16238   0.928  0.000  0.000
    59 H   0.07247  0.16235   0.928  0.000  0.000
    60 H   0.07247  0.16236   0.928  0.000  0.000
    61 H   0.07249  0.16238   0.928  0.000  0.000
    62 H   0.07247  0.16236   0.928  0.000  0.000
    63 H   0.07249  0.16239   0.928  0.000  0.000
    64 H   0.07248  0.16238   0.928  0.000  0.000
    65 H   0.02357  0.10233   0.976  0.000  0.000
    66 H   0.02357  0.10233   0.976  0.000  0.000
    67 H   0.02357  0.10233   0.976  0.000  0.000
    68 H   0.02357  0.10233   0.976  0.000  0.000
    69 H   0.02356  0.10231   0.976  0.000  0.000
    70 H   0.02356  0.10231   0.976  0.000  0.000
    71 H   0.02356  0.10231   0.976  0.000  0.000
    72 H   0.02356  0.10231   0.976  0.000  0.000
    73 B  -0.16102 -0.59673   0.996  2.165  0.000
    74 H  -0.14895 -0.00860   1.149  0.000  0.000
    75 H  -0.14895 -0.00858   1.149  0.000  0.000
    76 H  -0.14890 -0.00854   1.149  0.000  0.000
    77 H  -0.14889 -0.00851   1.149  0.000  0.000
 
 Wiberg/Mayer (AO) data. WBOs > 0.1 written file <wbo>
 largest (>0.05) Wiberg bond orders for each atom
           total WBO             WBO to atom ...
     1  C   3.978    N   17 0.997    N   21 0.994    C    5 0.957    H   69 0.947
     2  C   3.978    N   22 0.997    N   18 0.994    C    6 0.957    H   70 0.947
     3  C   3.978    N   19 0.997    N   23 0.994    C    7 0.957    H   71 0.947
     4  C   3.978    N   20 0.997    N   24 0.994    C    8 0.957    H   72 0.947
     5  C   3.978    N    9 0.997    N   13 0.994    C    1 0.957    H   65 0.947
     6  C   3.978    N   14 0.997    N   10 0.994    C    2 0.957    H   66 0.947
     7  C   3.978    N   11 0.997    N   15 0.994    C    3 0.957    H   67 0.947
     8  C   3.978    N   12 0.997    N   16 0.994    C    4 0.957    H   68 0.947
     9  N   3.422    C   25 1.099    C   41 0.999    C    5 0.997    O   33 0.146
    10  N   3.380    C   26 1.071    C   42 0.995    C    6 0.994    O   34 0.135
    11  N   3.422    C   27 1.099    C   43 0.999    C    7 0.997    O   35 0.146
    12  N   3.422    C   28 1.099    C   44 0.999    C    8 0.997    O   36 0.146
    13  N   3.380    C   29 1.070    C   45 0.995    C    5 0.994    O   37 0.134
    14  N   3.422    C   30 1.099    C   46 0.999    C    6 0.997    O   38 0.146
    15  N   3.380    C   31 1.070    C   47 0.995    C    7 0.994    O   39 0.134
    16  N   3.380    C   32 1.071    C   48 0.995    C    8 0.994    O   40 0.135
    17  N   3.422    C   25 1.099    C   42 0.999    C    1 0.997    O   33 0.146
    18  N   3.380    C   26 1.070    C   43 0.995    C    2 0.994    O   34 0.134
    19  N   3.422    C   27 1.099    C   48 0.999    C    3 0.997    O   35 0.146
    20  N   3.422    C   28 1.099    C   45 0.999    C    4 0.997    O   36 0.146
    21  N   3.379    C   29 1.070    C   46 0.995    C    1 0.994    O   37 0.134
    22  N   3.422    C   30 1.099    C   47 0.999    C    2 0.997    O   38 0.146
    23  N   3.380    C   31 1.070    C   44 0.995    C    3 0.994    O   39 0.134
    24  N   3.380    C   32 1.070    C   41 0.995    C    4 0.994    O   40 0.134
    25  C   3.966    O   33 1.695    N    9 1.099    N   17 1.099
    26  C   3.963    O   34 1.688    N   10 1.071    N   18 1.070    H   75 0.056
    27  C   3.966    O   35 1.695    N   11 1.099    N   19 1.099
    28  C   3.966    O   36 1.695    N   12 1.099    N   20 1.099
    29  C   3.963    O   37 1.688    N   13 1.070    N   21 1.070    H   77 0.056
    30  C   3.966    O   38 1.695    N   14 1.099    N   22 1.099
    31  C   3.963    O   39 1.688    N   15 1.070    N   23 1.070    H   76 0.056
    32  C   3.963    O   40 1.688    N   16 1.071    N   24 1.070    H   74 0.056
    33  O   2.049    C   25 1.695    N   17 0.146    N    9 0.146
    34  O   2.046    C   26 1.688    N   10 0.135    N   18 0.134
    35  O   2.049    C   27 1.695    N   19 0.146    N   11 0.146
    36  O   2.049    C   28 1.695    N   20 0.146    N   12 0.146
    37  O   2.046    C   29 1.688    N   13 0.134    N   21 0.134
    38  O   2.049    C   30 1.695    N   22 0.146    N   14 0.146
    39  O   2.046    C   31 1.688    N   15 0.134    N   23 0.134
    40  O   2.046    C   32 1.688    N   16 0.135    N   24 0.134
    41  C   3.970    N    9 0.999    N   24 0.995    H   49 0.964    H   57 0.956
    42  C   3.970    N   17 0.999    N   10 0.995    H   50 0.964    H   58 0.956
    43  C   3.970    N   11 0.999    N   18 0.995    H   51 0.964    H   59 0.956
    44  C   3.970    N   12 0.999    N   23 0.995    H   52 0.964    H   60 0.956
    45  C   3.970    N   20 0.999    N   13 0.995    H   53 0.964    H   61 0.956
    46  C   3.970    N   14 0.999    N   21 0.995    H   54 0.964    H   62 0.956
    47  C   3.970    N   22 0.999    N   15 0.995    H   55 0.964    H   63 0.956
    48  C   3.970    N   19 0.999    N   16 0.995    H   56 0.964    H   64 0.956
    49  H   0.998    C   41 0.964
    50  H   0.998    C   42 0.964
    51  H   0.998    C   43 0.964
    52  H   0.998    C   44 0.964
    53  H   0.998    C   45 0.964
    54  H   0.998    C   46 0.964
    55  H   0.998    C   47 0.964
    56  H   0.998    C   48 0.964
    57  H   0.994    C   41 0.956
    58  H   0.994    C   42 0.956
    59  H   0.994    C   43 0.956
    60  H   0.994    C   44 0.956
    61  H   0.994    C   45 0.956
    62  H   0.994    C   46 0.956
    63  H   0.994    C   47 0.956
    64  H   0.994    C   48 0.956
    65  H   0.999    C    5 0.947
    66  H   0.999    C    6 0.947
    67  H   0.999    C    7 0.947
    68  H   0.999    C    8 0.947
    69  H   0.999    C    1 0.947
    70  H   0.999    C    2 0.947
    71  H   0.999    C    3 0.947
    72  H   0.999    C    4 0.947
    73  B   3.767    H   75 0.884    H   74 0.884    H   76 0.884    H   77 0.884
    74  H   0.978    B   73 0.884    C   32 0.056
    75  H   0.978    B   73 0.884    C   26 0.056
    76  H   0.978    B   73 0.884    C   31 0.056
    77  H   0.978    B   73 0.884    C   29 0.056
 density
 
 cube file module (SG, 7/16)
 cube_pthr     :   0.005
 cube_step     :   0.400
 non-zero P (%):  33.857   nmat:    8532
 Grid Boundaries (x y z) :
   11.7722457247790        11.7723940835728        8.96752761740661     
  -11.7722493969263       -11.7724165337528       -8.96772759797169     
 Total # of points                156645
 writing density.cub
 N    (numint) : ******
cpu  time for cube   45.69 s
wall time for cube   44.38 s
 
molecular dipole:
                 x           y           z       tot (Debye)
 q only:        0.000      -0.000      -0.001
   full:        0.000      -0.000      -0.001       0.004
molecular quadrupole (traceless):
                xx          xy          yy          xz          yz          zz
 q only:       49.826      -0.001      49.829      -0.001      -0.001     -99.655
  q+dip:       58.456      -0.002      58.463      -0.002       0.000    -116.919
   full:       59.679      -0.002      59.686      -0.002      -0.000    -119.364
 SCC converged in                     14  cycles
 
SCC energy    :    -151.9343788
rep           :       1.5294187
ES            :       0.1467167
AES           :      -0.0044998
disp          :      -0.1237529
XB            :       0.0000000
fix           :       0.0000000
total E       :    -150.5287131
atomizationE  :      20.4513064    12833.39
(atE without considerung molecular charge,
 total energy contains solvation terms)
H-L gap (eV)  :          2.8793
 init_shake: metal bond                     73                    74 
 not constrained
 init_shake: metal bond                     73                    75 
 not constrained
 init_shake: metal bond                     73                    76 
 not constrained
 init_shake: metal bond                     73                    77 
 not constrained
 
       ===================================
       |          GMD driver             |
       ===================================
 
 
 MD time /ps        :   50.00
 dt /fs             :    4.00
 SCC accuracy       :    1.00
 temperature /K     :  298.15
 max steps          : 12500
 block length (av.) :   875
 dumpstep(trj) /fs  :   50.00    12
 dumpstep(coords)/fs: 1000.00   250
 minimum runtime(ps):   5.0
 maximum runtime(ps):  50.0
 H atoms mass (amu) :     4
 # deg. of freedom  :   147
 SHAKE on. # bonds  :                    84  all: T
 Berendsen THERMOSTAT on
 EQUILIBRATION mode
         time (ps)    <Epot>      Ekin   <T>   T     Etot
  q data taken from xtbrestart
  CAMM data taken from xtbrestart
      0    0.00      0.00000      NaN    0.    0.         NaN
  1.000000000000000E+099                     NaN
 MD is unstable, emergency exit 
 but still taking it as converged!
 average properties 
 Epot               :  -75.2643565491328     
 Epot (accurate SCC):                     NaN
 Ekin               :                     NaN
 Etot               :                     NaN
 T                  :                     NaN
 normal exit of md()
 
 MD time /ps        :   50.00
 dt /fs             :    4.00
 SCC accuracy       :    1.00
 temperature /K     :  298.15
 max steps          : 50000
 block length (av.) :   875
 dumpstep(trj) /fs  :   50.00    12
 dumpstep(coords)/fs: 1000.00   250
 minimum runtime(ps):  50.0
 maximum runtime(ps): 200.0
 H atoms mass (amu) :     4
 # deg. of freedom  :   147
 SHAKE on. # bonds  :                    84  all: T
 Berendsen THERMOSTAT on
 GMD mode
 RESTART
         time (ps)    <Epot>      Ekin   <T>   T     Etot
  q data taken from xtbrestart
  CAMM data taken from xtbrestart
 reading input structure for Re-R0 averaging
  1.000000000000000E+099  0.000000000000000E+000
 MD is unstable, emergency exit 
 but still taking it as converged!
 average properties 
 Epot               :  0.000000000000000E+000
 Epot (accurate SCC):                     NaN
 Ekin               :  0.000000000000000E+000
 Etot               :  0.000000000000000E+000
 T                  :  0.000000000000000E+000
 thermostating problem
 corrections to Re Z-matrix:
   1  C          NaN         NaN         NaN     0    0    0
   2  C          NaN         NaN         NaN     1    0    0
   3  C          NaN         NaN         NaN     2    1    0
   4  C          NaN         NaN         NaN     3    2    1
   5  C          NaN         NaN         NaN     1    2    3
   6  C          NaN         NaN         NaN     2    1    3
   7  C          NaN         NaN         NaN     3    2    1
   8  C          NaN         NaN         NaN     4    3    2
   9  N          NaN         NaN         NaN     5    1    2
  10  N          NaN         NaN         NaN     6    2    1
  11  N          NaN         NaN         NaN     7    3    2
  12  N          NaN         NaN         NaN     8    4    3
  13  N          NaN         NaN         NaN     5    1    2
  14  N          NaN         NaN         NaN     6    2    1
  15  N          NaN         NaN         NaN     7    3    2
  16  N          NaN         NaN         NaN     8    4    3
  17  N          NaN         NaN         NaN     1    2    3
  18  N          NaN         NaN         NaN     2    1    3
  19  N          NaN         NaN         NaN     3    2    1
  20  N          NaN         NaN         NaN     4    3    2
  21  N          NaN         NaN         NaN     1    2    3
  22  N          NaN         NaN         NaN     2    1    3
  23  N          NaN         NaN         NaN     3    2    1
  24  N          NaN         NaN         NaN     4    3    2
  25  C          NaN         NaN         NaN     9    5    1
  26  C          NaN         NaN         NaN    10    6    2
  27  C          NaN         NaN         NaN    11    7    3
  28  C          NaN         NaN         NaN    12    8    4
  29  C          NaN         NaN         NaN    13    5    1
  30  C          NaN         NaN         NaN    14    6    2
  31  C          NaN         NaN         NaN    15    7    3
  32  C          NaN         NaN         NaN    16    8    4
  33  O          NaN         NaN         NaN    25    9    5
  34  O          NaN         NaN         NaN    26   10    6
  35  O          NaN         NaN         NaN    27   11    7
  36  O          NaN         NaN         NaN    28   12    8
  37  O          NaN         NaN         NaN    29   13    5
  38  O          NaN         NaN         NaN    30   14    6
  39  O          NaN         NaN         NaN    31   15    7
  40  O          NaN         NaN         NaN    32   16    8
  41  C          NaN         NaN         NaN     9    5    1
  42  C          NaN         NaN         NaN    17    1    2
  43  C          NaN         NaN         NaN    11    7    3
  44  C          NaN         NaN         NaN    12    8    4
  45  C          NaN         NaN         NaN    20    4    3
  46  C          NaN         NaN         NaN    14    6    2
  47  C          NaN         NaN         NaN    22    2    1
  48  C          NaN         NaN         NaN    19    3    2
  49  H          NaN         NaN         NaN    41    9    5
  50  H          NaN         NaN         NaN    42   17    1
  51  H          NaN         NaN         NaN    43   11    7
  52  H          NaN         NaN         NaN    44   12    8
  53  H          NaN         NaN         NaN    45   20    4
  54  H          NaN         NaN         NaN    46   14    6
  55  H          NaN         NaN         NaN    47   22    2
  56  H          NaN         NaN         NaN    48   19    3
  57  H          NaN         NaN         NaN    41    9    5
  58  H          NaN         NaN         NaN    42   17    1
  59  H          NaN         NaN         NaN    43   11    7
  60  H          NaN         NaN         NaN    44   12    8
  61  H          NaN         NaN         NaN    45   20    4
  62  H          NaN         NaN         NaN    46   14    6
  63  H          NaN         NaN         NaN    47   22    2
  64  H          NaN         NaN         NaN    48   19    3
  65  H          NaN         NaN         NaN     5    1    2
  66  H          NaN         NaN         NaN     6    2    1
  67  H          NaN         NaN         NaN     7    3    2
  68  H          NaN         NaN         NaN     8    4    3
  69  H          NaN         NaN         NaN     1    2    3
  70  H          NaN         NaN         NaN     2    1    3
  71  H          NaN         NaN         NaN     3    2    1
  72  H          NaN         NaN         NaN     4    3    2
  73  B          NaN         NaN         NaN    28   12    8
  74  H          NaN         NaN         NaN    73   28   12
  75  H          NaN         NaN         NaN    73   28   12
  76  H          NaN         NaN         NaN    73   28   12
  77  H          NaN         NaN         NaN    73   28   12
Be      (a,b,c, in MHz) :     95.409     95.405     84.085
Be - B0 (a,b,c, in MHz) :        NaN        NaN        NaN
 corrected structure on <xtb_mdav.coord>
 normal exit of md()
 
speedup  1.14
cpu  time for all   53.71 s
wall time for all   47.22 s
