 
        ______________________________________
       |                                      |
       |           ==================         |
       |                 x T B                |
       |           ==================         |
       |               S. Grimme              |
       |        Universitaet Bonn, MCTC       |
       |         2015-18, Version 5.0         |
       |      Sat Jan 20 11:00:33 CET 2018    |
       |______________________________________|
 
        This code comes without any warranty
        for non-commercial, academia use only.
        Cite GFN-xTB work as:
        S. Grimme, C. Bannwarth, P. Shushkov
        JCTC, 13 (2017) 1989-2009
        for GFN2:
        C. Bannwarth, S. Ehlert, S. Grimme
        to be published.
        sTDA-xTB:
        S. Grimme  &  C. Bannwarth, JCP 145 (2016) 054103
        in the mass-spec context additionally:
        V. Asgeirsson, C.Bauer, S. Grimme, Chem. Sci. 8 (2017) 4879
 
        with help from
        P. Shushkov, G. Brandenburg, S. Dohm, J. Pisarek,
        F. März, M. Checinski, S. Ehrlich, S. Spicher, 
        P. Pracht, E. Caldeweyher, S. Ehlert, and C. Bannwarth.
 
        usage        :
        xtb <coord_file> [options]
        where <coord_file> is a valid file of TM)
        (*coord, Bohr) or xmol (*xyz, Angstroem)
        format.

        options:
        -chrg <int>   : molecular charge
        -uhf  <int>   : # of unpaired electrons(=2*S)
        -nox          : skip second, extended part in sTDA-xTB
        -pop          : do population analysis
                      : (default for -nox)
        -mowr <real>  : cut MO write above (def.3 Eh)
        -molden       : write formatted molden file
        -parx <file>  : read parameters for sTDA-xTB
                        calc (def:~/.param_stda2.xtb)
        -parv <file>  : read parameters for vTB part in
                        sTDA-xTB (def: ~/.param_stda1.xtb)
        -xtemp <real> : el. temp for xTB (def. 0 K)
        -etemp <real> : el. temp for GFN (def. 300 K)
        -fod          : do a xTB calc. of the FOD
                        and write molden.input file 
                        with appropriate occupations
                        for plotting. Def. T=12500 K
 
        -gfn          : use GFN-xTB
        -grad         : GFN-xTB gradient
        -acc <real>   : GFN-xTB accuracy (def. 1.0)
        -opt [level]  : optimize at GFN-xTB
                      : level=crude,vloose,loose,
                      :       tight,vtight
        -hess         : compute Hessian at GFN-xTB
        -ohess        : optimize and compute Hessian
        -omd          : optimize and do MD
        -siman        : conformational search
        -screen       : opt. loop over ensemble
        -gmd          : annealed MD for GMD procedure
        -modef        : vib mode following
        -gbsa [string1] [string2]
                        use GBSA implicit solvent
                        for solvent [string1] and
                        solvation state [string2]=
                        reference, bar1M (default=1M)
        additional GFN/opt/MD/siman options read from
        $XTBHOME/.xtbrc or $set in coordinate file
 
       spin and charge state information can be on:
       <.CHRG> (charge) and <.UHF> (=nalpha-nbeta)
       -uhf and -chrg override the file info.
       useful machine settings:
       setenv MKL_NUM_THREADS <NCORE_ON_YOUR_MACHINE>
       setenv OMP_STACKSIZE 500m
       limit stacksize unlimited
 
       total energies in Eh, gaps/HL energies in eV
       please read REVISION and HOWTO files carefully
 =============================
  # OMP threads =                     1
 =============================
 
 xtbhome directory:/Applications/xtb/
 
 argument                      1 :-chrg
 argument                      2 :-1
 argument                      3 :-gmd
 
 number of atoms            :    73
 number of electrons        :   256
 charge                     : -1
 spin                       : 0.0
 first test random number   :  0.7789
 
 
KAB for pair M(3d)-M(3d) :  1.1000
KAB for pair M(4d)-M(4d) :  1.2000
KAB for pair M(5d)-M(5d) :  1.2000
 -----------------------------------------
  G F N (Geometry, Frequency, Non-covalent)
        parametrization, version                     2
 /Applications/xtb/.param_gfn2.xtb
 -----------------------------------------
      method parameters     
 k(s)        :  1.8500
 k(p)        :  2.2500
 k(d)        :  2.0000
 k(f)        :  0.0000
 alphaj      :  1.0000
 kEN (H0ij)  : -2.3620
 D3 a1       :  0.6900
 D3 a2       :  4.0530
 D3 s8       :  2.0000
 D3atm       :  1.0000
 AESdamp     :  5.5000
 AESrad      :  1.9230
 expscalexp  : -0.2500
 
     -------------------------
     ! NO SOLVENT MODEL USED !
     -------------------------
 
 doing EN charges ...
 sum q : -0.1000000D+01
 point charge moment (au)
     X       Y       Z   
   0.0000  -0.0000   0.0000  total (Debye):    0.000
 
            Z      q(EN)   CN      Cart. coordinates
     1  C   4.0    0.20    4.30    -6.03015    -3.07557     0.00000
     2  C   4.0    0.20    4.30     3.07557    -6.03015     0.00000
     3  C   4.0    0.20    4.30     6.03015     3.07557     0.00000
     4  C   4.0    0.20    4.30    -3.07557     6.03015     0.00000
     5  C   4.0    0.20    4.30    -6.76467    -0.18716     0.00000
     6  C   4.0    0.20    4.30     0.18716    -6.76467     0.00000
     7  C   4.0    0.20    4.30     6.76467     0.18716     0.00000
     8  C   4.0    0.20    4.30    -0.18716     6.76467     0.00000
     9  N   5.0   -0.22    3.22    -5.75348     0.72218    -2.36197
    10  N   5.0   -0.22    3.22    -0.72218    -5.75348    -2.36197
    11  N   5.0   -0.22    3.22     5.75348    -0.72218    -2.36197
    12  N   5.0   -0.22    3.22     0.72218     5.75348     2.36197
    13  N   5.0   -0.22    3.22    -5.75348     0.72218     2.36197
    14  N   5.0   -0.22    3.22    -0.72218    -5.75348     2.36197
    15  N   5.0   -0.22    3.22     5.75348    -0.72218     2.36197
    16  N   5.0   -0.22    3.22     0.72218     5.75348    -2.36197
    17  N   5.0   -0.22    3.22    -4.70869    -3.39138    -2.36352
    18  N   5.0   -0.22    3.22     3.39138    -4.70869    -2.36352
    19  N   5.0   -0.22    3.22     4.70869     3.39138    -2.36352
    20  N   5.0   -0.22    3.22    -3.39138     4.70869     2.36352
    21  N   5.0   -0.22    3.22    -4.70869    -3.39138     2.36352
    22  N   5.0   -0.22    3.22     3.39138    -4.70869     2.36352
    23  N   5.0   -0.22    3.22     4.70869     3.39138     2.36352
    24  N   5.0   -0.22    3.22    -3.39138     4.70869    -2.36352
    25  C   4.0    0.43    3.27    -4.67486    -1.19259    -3.81354
    26  C   4.0    0.43    3.27     1.19259    -4.67486    -3.81354
    27  C   4.0    0.43    3.27     4.67486     1.19259    -3.81354
    28  C   4.0    0.43    3.27    -1.19259     4.67486     3.81354
    29  C   4.0    0.43    3.27    -4.67486    -1.19259     3.81354
    30  C   4.0    0.43    3.27     1.19259    -4.67486     3.81354
    31  C   4.0    0.43    3.27     4.67486     1.19259     3.81354
    32  C   4.0    0.43    3.27    -1.19259     4.67486    -3.81354
    33  O   6.0   -0.36    1.06    -4.03184    -1.02799    -6.00298
    34  O   6.0   -0.36    1.06     1.02799    -4.03184    -6.00298
    35  O   6.0   -0.36    1.06     4.03184     1.02799    -6.00298
    36  O   6.0   -0.36    1.06    -1.02799     4.03184     6.00298
    37  O   6.0   -0.36    1.06    -4.03184    -1.02799     6.00298
    38  O   6.0   -0.36    1.06     1.02799    -4.03184     6.00298
    39  O   6.0   -0.36    1.06     4.03184     1.02799     6.00298
    40  O   6.0   -0.36    1.06    -1.02799     4.03184    -6.00298
    41  C   4.0    0.24    4.14    -5.61088     3.33015    -3.15734
    42  C   4.0    0.24    4.14    -3.33015    -5.61088    -3.15734
    43  C   4.0    0.24    4.14     5.61088    -3.33015    -3.15734
    44  C   4.0    0.24    4.14     3.33015     5.61088     3.15734
    45  C   4.0    0.24    4.14    -5.61088     3.33015     3.15734
    46  C   4.0    0.24    4.14    -3.33015    -5.61088     3.15734
    47  C   4.0    0.24    4.14     5.61088    -3.33015     3.15734
    48  C   4.0    0.24    4.14     3.33015     5.61088    -3.15734
    49  H   1.0   -0.06    1.00    -7.30135     4.33237    -2.48741
    50  H   1.0   -0.06    1.00    -4.33237    -7.30135    -2.48741
    51  H   1.0   -0.06    1.00     7.30135    -4.33237    -2.48741
    52  H   1.0   -0.06    1.00     4.33237     7.30135     2.48741
    53  H   1.0   -0.06    1.00    -7.30135     4.33237     2.48741
    54  H   1.0   -0.06    1.00    -4.33237    -7.30135     2.48741
    55  H   1.0   -0.06    1.00     7.30135    -4.33237     2.48741
    56  H   1.0   -0.06    1.00     4.33237     7.30135    -2.48741
    57  H   1.0   -0.06    1.01    -5.57403     3.30643    -5.22407
    58  H   1.0   -0.06    1.01    -3.30643    -5.57403    -5.22407
    59  H   1.0   -0.06    1.01     5.57403    -3.30643    -5.22407
    60  H   1.0   -0.06    1.01     3.30643     5.57403     5.22407
    61  H   1.0   -0.06    1.01    -5.57403     3.30643     5.22407
    62  H   1.0   -0.06    1.01    -3.30643    -5.57403     5.22407
    63  H   1.0   -0.06    1.01     5.57403    -3.30643     5.22407
    64  H   1.0   -0.06    1.01     3.30643     5.57403    -5.22407
    65  H   1.0   -0.06    1.00    -8.83247     0.09110     0.00000
    66  H   1.0   -0.06    1.00    -0.09110    -8.83247     0.00000
    67  H   1.0   -0.06    1.00     8.83247    -0.09110     0.00000
    68  H   1.0   -0.06    1.00     0.09110     8.83247     0.00000
    69  H   1.0   -0.06    1.00    -7.71390    -4.30714     0.00000
    70  H   1.0   -0.06    1.00     4.30714    -7.71390     0.00000
    71  H   1.0   -0.06    1.00     7.71390     4.30714     0.00000
    72  H   1.0   -0.06    1.00    -4.30714     7.71390     0.00000
    73  CL  7.0   -0.13    0.23     0.00000     0.00000     0.00000
 
  Z AO/shell   Hii/eV     exponent
  1     Sat Jan 20 17:55:17 CET 2018    EN: 2.200 GAM: 0.531  GM3:-0.4370
     1s    -10.248275    1.266496
  6     Sat Jan 20 17:55:17 CET 2018    EN: 2.550 GAM: 0.417  GM3:-0.0654
     2s    -15.292509    2.030071
     2p    -10.408465    1.801676
  7     Sat Jan 20 17:55:17 CET 2018    EN: 3.040 GAM: 0.444  GM3:-0.1301
     2s    -16.687725    2.226550
     2p    -13.175143    1.981921
  8     Sat Jan 20 17:55:17 CET 2018    EN: 3.440 GAM: 0.468  GM3: 0.0937
     2s    -20.924998    2.442614
     2p    -15.243501    2.233841
 17     Sun Jan 21 10:22:39 CET 2018    EN: 3.160 GAM: 0.647  GM3: 0.0193
     3s    -24.103550    2.282489
     3p    -11.853626    2.167734
     3d     -0.301444    1.765525
 no old-style atom pair restraing (fixing) potential
 
 molecular fragmentation (1/2 indicates fragments):
1111111111111111111111111111111111111111111111111111111111111111111111112
# atoms in fragment 1/2:    72     1
 fragment masses (1/2) :      664.56       35.45
CMA distance (Bohr)    :   0.000
constraining FC (au)   :  0.0500
 
             =======================================
             |                                     |
             |        S C C  calculation           |
             |                                     |
             =======================================
 #proc     :                      1
 Ncao      :                    226
 Nao       :                    225
 Nel       :                    256
 T(el)     :   300.0
 intcut    :    25.0
 scfconv   :  0.100E-05
   qconv   :  0.200E-04
 intneglect:  0.100E-07
 broydamp  :      0.400
 Nshell    :                    123
 iter      E             dE          RMSdq      gap      omega  full diag
   1   -152.1527987 -0.152153E+03  0.980E+00    4.52       0.0  T
   2   -152.5867580 -0.433959E+00  0.540E+00    3.43       1.0  T
   3   -152.5098581  0.768999E-01  0.228E+00    2.53       1.0  T
   4   -152.6921513 -0.182293E+00  0.558E-01    2.61       1.0  T
   5   -152.6985165 -0.636521E-02  0.189E-01    2.58       1.0  T
   6   -152.6988721 -0.355583E-03  0.771E-02    2.58       1.0  T
   7   -152.6989331 -0.609466E-04  0.308E-02    2.57       1.0  T
   8   -152.6989445 -0.113861E-04  0.875E-03    2.58       1.3  T
   9   -152.6989461 -0.168427E-05  0.444E-03    2.58       2.6  T
  10   -152.6989463 -0.196171E-06  0.169E-03    2.58       6.9  T
  11   -152.6989464 -0.186459E-07  0.103E-03    2.58      11.3  T
  12   -152.6989464 -0.534927E-07  0.263E-04    2.58      44.5  T
  13   -152.6989464 -0.332915E-08  0.988E-05    2.58     118.4  T
  14   -152.6989464 -0.805329E-09  0.239E-05    2.58     489.7  T
speedup  6.63
cpu  time for SCC    3.08 s
wall time for SCC    0.46 s

          eigenvalues
 #    :         116        117        118        119        120        121        122        123
 occ. :        2.000      2.000      2.000      2.000      2.000      2.000      2.000      2.000
 eps  :        -7.924     -7.893     -7.684     -7.684     -7.622     -7.580     -7.573     -7.552
 #    :         124        125        126        127        128        129        130        131
 occ. :        2.000      2.000      2.000      2.000      2.000      0.000      0.000      0.000
 eps  :        -7.552     -7.509     -5.120     -5.120     -5.053     -2.476     -2.353     -2.195
 #    :         132        133        134        135        136        137        138        139
 occ. :        0.000      0.000      0.000      0.000      0.000      0.000      0.000      0.000
 eps  :        -2.195     -2.156     -2.156     -1.994     -1.944      2.000      2.069      2.069
 
 
 Mulliken/CM5 charges        n(s)   n(p)   n(d)
     1 C   0.06526  0.14332   1.084  2.851  0.000
     2 C   0.06526  0.14332   1.084  2.851  0.000
     3 C   0.06526  0.14332   1.084  2.851  0.000
     4 C   0.06526  0.14332   1.084  2.851  0.000
     5 C   0.06531  0.14349   1.084  2.851  0.000
     6 C   0.06531  0.14349   1.084  2.851  0.000
     7 C   0.06531  0.14349   1.084  2.851  0.000
     8 C   0.06531  0.14349   1.084  2.851  0.000
     9 N  -0.03339 -0.26985   1.131  3.902  0.000
    10 N  -0.03339 -0.26985   1.131  3.902  0.000
    11 N  -0.03339 -0.26985   1.131  3.902  0.000
    12 N  -0.03339 -0.26985   1.131  3.902  0.000
    13 N  -0.03339 -0.26985   1.131  3.902  0.000
    14 N  -0.03339 -0.26985   1.131  3.902  0.000
    15 N  -0.03339 -0.26985   1.131  3.902  0.000
    16 N  -0.03339 -0.26985   1.131  3.902  0.000
    17 N  -0.03359 -0.26989   1.132  3.902  0.000
    18 N  -0.03359 -0.26989   1.132  3.902  0.000
    19 N  -0.03359 -0.26989   1.132  3.902  0.000
    20 N  -0.03359 -0.26989   1.132  3.902  0.000
    21 N  -0.03359 -0.26989   1.132  3.902  0.000
    22 N  -0.03359 -0.26989   1.132  3.902  0.000
    23 N  -0.03359 -0.26989   1.132  3.902  0.000
    24 N  -0.03359 -0.26989   1.132  3.902  0.000
    25 C   0.22965  0.39561   1.066  2.704  0.000
    26 C   0.22965  0.39561   1.066  2.704  0.000
    27 C   0.22965  0.39561   1.066  2.704  0.000
    28 C   0.22965  0.39561   1.066  2.704  0.000
    29 C   0.22965  0.39561   1.066  2.704  0.000
    30 C   0.22965  0.39561   1.066  2.704  0.000
    31 C   0.22965  0.39561   1.066  2.704  0.000
    32 C   0.22965  0.39561   1.066  2.704  0.000
    33 O  -0.39958 -0.43974   1.729  4.670  0.000
    34 O  -0.39958 -0.43974   1.729  4.670  0.000
    35 O  -0.39958 -0.43974   1.729  4.670  0.000
    36 O  -0.39958 -0.43974   1.729  4.670  0.000
    37 O  -0.39958 -0.43974   1.729  4.670  0.000
    38 O  -0.39958 -0.43974   1.729  4.670  0.000
    39 O  -0.39958 -0.43974   1.729  4.670  0.000
    40 O  -0.39958 -0.43974   1.729  4.670  0.000
    41 C   0.03295  0.05616   1.074  2.893  0.000
    42 C   0.03295  0.05616   1.074  2.893  0.000
    43 C   0.03295  0.05616   1.074  2.893  0.000
    44 C   0.03295  0.05616   1.074  2.893  0.000
    45 C   0.03295  0.05616   1.074  2.893  0.000
    46 C   0.03295  0.05616   1.074  2.893  0.000
    47 C   0.03295  0.05616   1.074  2.893  0.000
    48 C   0.03295  0.05616   1.074  2.893  0.000
    49 H   0.03416  0.11097   0.966  0.000  0.000
    50 H   0.03416  0.11097   0.966  0.000  0.000
    51 H   0.03416  0.11097   0.966  0.000  0.000
    52 H   0.03416  0.11097   0.966  0.000  0.000
    53 H   0.03416  0.11097   0.966  0.000  0.000
    54 H   0.03416  0.11097   0.966  0.000  0.000
    55 H   0.03416  0.11097   0.966  0.000  0.000
    56 H   0.03416  0.11097   0.966  0.000  0.000
    57 H   0.07356  0.16083   0.926  0.000  0.000
    58 H   0.07356  0.16083   0.926  0.000  0.000
    59 H   0.07356  0.16083   0.926  0.000  0.000
    60 H   0.07356  0.16083   0.926  0.000  0.000
    61 H   0.07356  0.16083   0.926  0.000  0.000
    62 H   0.07356  0.16083   0.926  0.000  0.000
    63 H   0.07356  0.16083   0.926  0.000  0.000
    64 H   0.07356  0.16083   0.926  0.000  0.000
    65 H   0.02605  0.10511   0.974  0.000  0.000
    66 H   0.02605  0.10511   0.974  0.000  0.000
    67 H   0.02605  0.10511   0.974  0.000  0.000
    68 H   0.02605  0.10511   0.974  0.000  0.000
    69 H   0.02623  0.10531   0.974  0.000  0.000
    70 H   0.02623  0.10531   0.974  0.000  0.000
    71 H   0.02623  0.10531   0.974  0.000  0.000
    72 H   0.02623  0.10531   0.974  0.000  0.000
    73 CL -0.96152 -0.94171   2.000  5.969 -0.007
 
 Wiberg/Mayer (AO) data. WBOs > 0.1 written file <wbo>
 largest (>0.05) Wiberg bond orders for each atom
           total WBO             WBO to atom ...
     1  C   3.977    N   17 0.997    N   21 0.997    C    5 0.951    H   69 0.948
     2  C   3.977    N   18 0.997    N   22 0.997    C    6 0.951    H   70 0.948
     3  C   3.977    N   23 0.997    N   19 0.997    C    7 0.951    H   71 0.948
     4  C   3.977    N   20 0.997    N   24 0.997    C    8 0.951    H   72 0.948
     5  C   3.977    N   13 0.997    N    9 0.997    C    1 0.951    H   65 0.948
     6  C   3.977    N   14 0.997    N   10 0.997    C    2 0.951    H   66 0.948
     7  C   3.977    N   15 0.997    N   11 0.997    C    3 0.951    H   67 0.948
     8  C   3.977    N   16 0.997    N   12 0.997    C    4 0.951    H   68 0.948
     9  N   3.415    C   25 1.097    C    5 0.997    C   41 0.997    O   33 0.146
    10  N   3.415    C   26 1.097    C    6 0.997    C   42 0.997    O   34 0.146
    11  N   3.415    C   27 1.097    C    7 0.997    C   43 0.997    O   35 0.146
    12  N   3.415    C   28 1.097    C    8 0.997    C   44 0.997    O   36 0.146
    13  N   3.415    C   29 1.097    C    5 0.997    C   45 0.997    O   37 0.146
    14  N   3.415    C   30 1.097    C    6 0.997    C   46 0.997    O   38 0.146
    15  N   3.415    C   31 1.097    C    7 0.997    C   47 0.997    O   39 0.146
    16  N   3.415    C   32 1.097    C    8 0.997    C   48 0.997    O   40 0.146
    17  N   3.414    C   25 1.096    C    1 0.997    C   42 0.997    O   33 0.146
    18  N   3.414    C   26 1.096    C    2 0.997    C   43 0.997    O   34 0.146
    19  N   3.414    C   27 1.096    C    3 0.997    C   48 0.997    O   35 0.146
    20  N   3.414    C   28 1.096    C    4 0.997    C   45 0.997    O   36 0.146
    21  N   3.414    C   29 1.096    C    1 0.997    C   46 0.997    O   37 0.146
    22  N   3.414    C   30 1.096    C    2 0.997    C   47 0.997    O   38 0.146
    23  N   3.414    C   31 1.096    C    3 0.997    C   44 0.997    O   39 0.146
    24  N   3.414    C   32 1.096    C    4 0.997    C   41 0.997    O   40 0.146
    25  C   3.963    O   33 1.701    N    9 1.097    N   17 1.096
    26  C   3.963    O   34 1.701    N   10 1.097    N   18 1.096
    27  C   3.963    O   35 1.701    N   11 1.097    N   19 1.096
    28  C   3.963    O   36 1.701    N   12 1.097    N   20 1.096
    29  C   3.963    O   37 1.701    N   13 1.097    N   21 1.096
    30  C   3.963    O   38 1.701    N   14 1.097    N   22 1.096
    31  C   3.963    O   39 1.701    N   15 1.097    N   23 1.096
    32  C   3.963    O   40 1.701    N   16 1.097    N   24 1.096
    33  O   2.052    C   25 1.701    N    9 0.146    N   17 0.146
    34  O   2.052    C   26 1.701    N   10 0.146    N   18 0.146
    35  O   2.052    C   27 1.701    N   11 0.146    N   19 0.146
    36  O   2.052    C   28 1.701    N   12 0.146    N   20 0.146
    37  O   2.052    C   29 1.701    N   13 0.146    N   21 0.146
    38  O   2.052    C   30 1.701    N   14 0.146    N   22 0.146
    39  O   2.052    C   31 1.701    N   15 0.146    N   23 0.146
    40  O   2.052    C   32 1.701    N   16 0.146    N   24 0.146
    41  C   3.970    N    9 0.997    N   24 0.997    H   49 0.964    H   57 0.958
    42  C   3.970    N   10 0.997    N   17 0.997    H   50 0.964    H   58 0.958
    43  C   3.970    N   11 0.997    N   18 0.997    H   51 0.964    H   59 0.958
    44  C   3.970    N   12 0.997    N   23 0.997    H   52 0.964    H   60 0.958
    45  C   3.970    N   13 0.997    N   20 0.997    H   53 0.964    H   61 0.958
    46  C   3.970    N   14 0.997    N   21 0.997    H   54 0.964    H   62 0.958
    47  C   3.970    N   15 0.997    N   22 0.997    H   55 0.964    H   63 0.958
    48  C   3.970    N   16 0.997    N   19 0.997    H   56 0.964    H   64 0.958
    49  H   0.998    C   41 0.964
    50  H   0.998    C   42 0.964
    51  H   0.998    C   43 0.964
    52  H   0.998    C   44 0.964
    53  H   0.998    C   45 0.964
    54  H   0.998    C   46 0.964
    55  H   0.998    C   47 0.964
    56  H   0.998    C   48 0.964
    57  H   0.994    C   41 0.958
    58  H   0.994    C   42 0.958
    59  H   0.994    C   43 0.958
    60  H   0.994    C   44 0.958
    61  H   0.994    C   45 0.958
    62  H   0.994    C   46 0.958
    63  H   0.994    C   47 0.958
    64  H   0.994    C   48 0.958
    65  H   0.999    C    5 0.948
    66  H   0.999    C    6 0.948
    67  H   0.999    C    7 0.948
    68  H   0.999    C    8 0.948
    69  H   0.999    C    1 0.948
    70  H   0.999    C    2 0.948
    71  H   0.999    C    3 0.948
    72  H   0.999    C    4 0.948
    73  CL  0.050
 density
 
 cube file module (SG, 7/16)
 cube_pthr     :   0.005
 cube_step     :   0.400
 non-zero P (%):  30.131   nmat:    7729
 Grid Boundaries (x y z) :
   11.8324657034582        11.8324657034582        9.00297903957551     
  -11.8324657034582       -11.8324657034582       -9.00297903957551     
 Total # of points                165600
 writing density.cub
 N    (numint) : ******
cpu  time for cube   43.41 s
wall time for cube   42.21 s
 
molecular dipole:
                 x           y           z       tot (Debye)
 q only:        0.000       0.000      -0.000
   full:        0.000       0.000      -0.000       0.000
molecular quadrupole (traceless):
                xx          xy          yy          xz          yz          zz
 q only:       51.863       0.000      51.863      -0.000      -0.000    -103.726
  q+dip:       61.125       0.000      61.125      -0.000      -0.000    -122.250
   full:       62.179       0.000      62.179      -0.000      -0.000    -124.358
 SCC converged in                     14  cycles
 
SCC energy    :    -152.6989464
rep           :       1.4113527
ES            :       0.1402804
AES           :      -0.0076240
disp          :      -0.1138161
XB            :       0.0000000
fix           :       0.0000000
total E       :    -151.4014098
atomizationE  :      19.9826951    12539.33
(atE without considerung molecular charge,
 total energy contains solvation terms)
H-L gap (eV)  :          2.5770
 
       ===================================
       |          GMD driver             |
       ===================================
 
 
 MD time /ps        :   50.00
 dt /fs             :    4.00
 SCC accuracy       :    1.00
 temperature /K     :  298.15
 max steps          : 12500
 block length (av.) :   875
 dumpstep(trj) /fs  :   50.00    12
 dumpstep(coords)/fs: 1000.00   250
 minimum runtime(ps):   5.0
 maximum runtime(ps):  50.0
 H atoms mass (amu) :     4
 # deg. of freedom  :   135
 SHAKE on. # bonds  :                    84  all: T
 Berendsen THERMOSTAT on
 EQUILIBRATION mode
         time (ps)    <Epot>      Ekin   <T>   T     Etot
  q data taken from xtbrestart
  CAMM data taken from xtbrestart
      0    0.00      0.00000   0.0380    0.    0.  -151.36343
est. speed in wall clock h for 100 ps :  3.59
    200    0.80   -150.63708   0.0191   87.   89.  -151.37319
    400    1.60   -151.01278   0.0170   88.   80.  -151.37139
    600    2.40   -151.13843   0.0197   89.   92.  -151.36953
    800    3.20   -151.20129   0.0181   89.   85.  -151.37183
block <Epot> / <T> :    -151.39025   89.     drift:  0.99D+02   Tbath : 134.
   1000    4.00   -151.23814   0.0282   92.  132.  -151.35399
   1200    4.80   -151.26189   0.0304   99.  142.  -151.35327
   1400    5.60   -151.27877   0.0295  104.  138.  -151.35036
   1600    6.40   -151.29147   0.0278  108.  130.  -151.35276
block <Epot> / <T> :    -151.38084  132.     drift:  0.99D+02   Tbath : 201.
   1800    7.20   -151.30119   0.0379  111.  177.  -151.33301
   2000    8.00   -151.30779   0.0451  120.  211.  -151.32477
   2200    8.80   -151.31308   0.0441  127.  206.  -151.32143
   2400    9.60   -151.31749   0.0446  133.  209.  -151.32115
   2600   10.40   -151.32128   0.0391  139.  183.  -151.31703
block <Epot> / <T> :    -151.36690  197.     drift:  0.99D+02   Tbath : 298.
   2800   11.20   -151.32353   0.0594  147.  278.  -151.28518
   3000   12.00   -151.32503   0.0678  157.  317.  -151.28290
   3200   12.80   -151.32633   0.0707  166.  331.  -151.28328
   3400   13.60   -151.32748   0.0612  174.  286.  -151.28500
block <Epot> / <T> :    -151.34684  293.     drift:  0.14D-01   Tbath : 298.
   3600   14.40   -151.32849   0.0624  181.  292.  -151.27903
   3800   15.20   -151.32939   0.0656  187.  307.  -151.27947
   4000   16.00   -151.33024   0.0689  193.  323.  -151.28214
   4200   16.80   -151.33102   0.0574  198.  268.  -151.29054
block <Epot> / <T> :    -151.34607  298.     drift:  0.12D-01   Tbath : 298.
   4400   17.60   -151.33169   0.0656  202.  307.  -151.28278
   4600   18.40   -151.33229   0.0651  206.  305.  -151.27625
   4800   19.20   -151.33285   0.0682  210.  319.  -151.28178
   5000   20.00   -151.33336   0.0595  214.  278.  -151.27929
   5200   20.80   -151.33382   0.0605  217.  283.  -151.28667
block <Epot> / <T> :    -151.34554  298.     drift:  0.65D-02   Tbath : 298.
   5400   21.60   -151.33424   0.0675  220.  316.  -151.28087
   5600   22.40   -151.33466   0.0630  223.  295.  -151.27852
   5800   23.20   -151.33509   0.0632  225.  295.  -151.28223
   6000   24.00   -151.33546   0.0563  228.  263.  -151.29084
block <Epot> / <T> :    -151.34600  298.     drift:  0.31D-03   Tbath : 298.
 GOOD AVERAGES REACHED
 average properties 
 Epot               :  -151.360348153595     
 Epot (accurate SCC):  -151.360460430086     
 Ekin               :  4.900551432719075E-002
 Etot               :  -151.311342639268     
 T                  :   229.254803302384     
 normal exit of md()
 
 MD time /ps        :   50.00
 dt /fs             :    4.00
 SCC accuracy       :    1.00
 temperature /K     :  298.15
 max steps          : 50000
 block length (av.) :   875
 dumpstep(trj) /fs  :   50.00    12
 dumpstep(coords)/fs: 1000.00   250
 minimum runtime(ps):  50.0
 maximum runtime(ps): 200.0
 H atoms mass (amu) :     4
 # deg. of freedom  :   135
 SHAKE on. # bonds  :                    84  all: T
 Berendsen THERMOSTAT on
 GMD mode
 RESTART
         time (ps)    <Epot>      Ekin   <T>   T     Etot
 reading input structure for Re-R0 averaging
      0    0.00      0.00000   0.0680    0.    0.  -151.28321
est. speed in wall clock h for 100 ps :  3.74
    200    0.80   -150.59240   0.0585  297.  274.  -151.28391
    400    1.60   -150.96805   0.0627  298.  293.  -151.28513
    600    2.40   -151.09387   0.0619  298.  290.  -151.28098
    800    3.20   -151.15696   0.0661  299.  309.  -151.27982
block <Epot> / <T> :    -151.34595  298.     drift:  0.99D+02   Tbath : 298.
   1000    4.00   -151.19482   0.0626  298.  293.  -151.28211
   1200    4.80   -151.22014   0.0688  298.  322.  -151.28396
   1400    5.60   -151.23810   0.0702  298.  329.  -151.28647
   1600    6.40   -151.25150   0.0613  298.  287.  -151.28616
block <Epot> / <T> :    -151.34596  297.     drift:  0.99D+02   Tbath : 298.
   1800    7.20   -151.26188   0.0696  298.  325.  -151.28049
   2000    8.00   -151.27020   0.0584  298.  273.  -151.28373
   2200    8.80   -151.27701   0.0671  298.  314.  -151.28069
   2400    9.60   -151.28270   0.0605  298.  283.  -151.28278
   2600   10.40   -151.28747   0.0610  298.  285.  -151.27753
block <Epot> / <T> :    -151.34505  298.     drift:  0.99D+02   Tbath : 298.
   2800   11.20   -151.29161   0.0760  298.  355.  -151.27451
   3000   12.00   -151.29520   0.0598  298.  280.  -151.28332
   3200   12.80   -151.29833   0.0728  298.  341.  -151.27703
   3400   13.60   -151.30109   0.0718  298.  336.  -151.27833
block <Epot> / <T> :    -151.34539  298.     drift:  0.26D-03   Tbath : 298.
   3600   14.40   -151.30355   0.0647  298.  303.  -151.27907
   3800   15.20   -151.30573   0.0659  298.  308.  -151.28495
   4000   16.00   -151.30768   0.0654  298.  306.  -151.28505
   4200   16.80   -151.30947   0.0664  298.  311.  -151.28328
block <Epot> / <T> :    -151.34500  298.     drift:  0.25D-03   Tbath : 298.
   4400   17.60   -151.31108   0.0751  298.  351.  -151.27943
   4600   18.40   -151.31258   0.0615  298.  288.  -151.28599
   4800   19.20   -151.31397   0.0604  298.  282.  -151.28039
   5000   20.00   -151.31524   0.0664  298.  311.  -151.27451
   5200   20.80   -151.31641   0.0646  298.  302.  -151.27942
block <Epot> / <T> :    -151.34567  298.     drift: -0.15D-03   Tbath : 298.
   5400   21.60   -151.31747   0.0681  298.  319.  -151.27843
   5600   22.40   -151.31847   0.0635  298.  297.  -151.28276
   5800   23.20   -151.31940   0.0639  298.  299.  -151.28317
   6000   24.00   -151.32027   0.0606  298.  283.  -151.28532
block <Epot> / <T> :    -151.34539  298.     drift: -0.66D-04   Tbath : 298.
   6200   24.80   -151.32108   0.0621  298.  290.  -151.28772
   6400   25.60   -151.32187   0.0626  298.  293.  -151.27820
   6600   26.40   -151.32264   0.0572  298.  267.  -151.27944
   6800   27.20   -151.32333   0.0699  298.  327.  -151.28550
   7000   28.00   -151.32398   0.0647  298.  302.  -151.28815
block <Epot> / <T> :    -151.34631  298.     drift: -0.36D-03   Tbath : 298.
   7200   28.80   -151.32459   0.0680  298.  318.  -151.27944
   7400   29.60   -151.32518   0.0683  298.  319.  -151.28320
   7600   30.40   -151.32575   0.0633  298.  296.  -151.28853
   7800   31.20   -151.32627   0.0636  298.  298.  -151.27928
block <Epot> / <T> :    -151.34626  298.     drift: -0.27D-03   Tbath : 298.
   8000   32.00   -151.32674   0.0697  298.  326.  -151.28542
   8200   32.80   -151.32719   0.0600  298.  281.  -151.27627
   8400   33.60   -151.32762   0.0666  298.  311.  -151.27801
   8600   34.40   -151.32803   0.0610  298.  285.  -151.28536
block <Epot> / <T> :    -151.34535  298.     drift:  0.17D-04   Tbath : 298.
   8800   35.20   -151.32844   0.0622  298.  291.  -151.27526
   9000   36.00   -151.32882   0.0706  298.  330.  -151.27714
   9200   36.80   -151.32919   0.0608  298.  285.  -151.28148
   9400   37.60   -151.32956   0.0669  298.  313.  -151.27936
   9600   38.40   -151.32991   0.0593  298.  277.  -151.28106
block <Epot> / <T> :    -151.34605  298.     drift:  0.17D-03   Tbath : 298.
   9800   39.20   -151.33024   0.0681  298.  319.  -151.28405
  10000   40.00   -151.33056   0.0602  298.  281.  -151.28544
  10200   40.80   -151.33088   0.0687  298.  321.  -151.28549
  10400   41.60   -151.33116   0.0653  298.  305.  -151.28293
block <Epot> / <T> :    -151.34624  298.     drift: -0.65D-04   Tbath : 298.
  10600   42.40   -151.33145   0.0704  298.  329.  -151.28311
  10800   43.20   -151.33172   0.0531  298.  249.  -151.28752
  11000   44.00   -151.33197   0.0663  298.  310.  -151.28656
  11200   44.80   -151.33221   0.0684  298.  320.  -151.28702
block <Epot> / <T> :    -151.34564  297.     drift: -0.11D-03   Tbath : 298.
  11400   45.60   -151.33243   0.0440  298.  206.  -151.28580
  11600   46.40   -151.33265   0.0588  298.  275.  -151.28260
  11800   47.20   -151.33285   0.0605  298.  283.  -151.27749
  12000   48.00   -151.33305   0.0682  298.  319.  -151.27203
  12200   48.80   -151.33326   0.0606  298.  284.  -151.27922
block <Epot> / <T> :    -151.34490  298.     drift:  0.40D-03   Tbath : 298.
  12400   49.60   -151.33345   0.0653  298.  306.  -151.28012
 GOOD AVERAGES REACHED
 average properties 
 Epot               :  -151.345647242517     
 Epot (accurate SCC):  -151.345878253633     
 Ekin               :  6.370468337172044E-002
 Etot               :  -151.281942559146     
 T                  :   298.019617921264     
 corrections to Re Z-matrix:
   1  C     0.000000      0.0000      0.0000     0    0    0
   2  C    -0.032095      0.0000      0.0000     1    0    0
   3  C    -0.032570     -0.0637      0.0000     2    1    0
   4  C    -0.033212      0.0270      0.0307     1    2    3
   5  C    -0.000000     -0.0165      0.0021     1    2    3
   6  C    -0.000000     -0.0438      0.0512     2    1    3
   7  C    -0.000000     -0.0037     -0.0444     3    2    1
   8  C    -0.000000     -0.1352     -0.0389     4    1    2
   9  N    -0.000000     -0.2019     -0.8112     5    1    2
  10  N    -0.000000     -0.1984     -1.4540     6    2    1
  11  N    -0.000000     -0.2112     -1.0833     7    3    2
  12  N    -0.000000     -0.2033      1.0685     8    4    1
  13  N    -0.000000     -0.2148      1.4072     5    1    2
  14  N    -0.000000     -0.1921      0.7562     6    2    1
  15  N    -0.000000     -0.1956      1.1486     7    3    2
  16  N    -0.000000     -0.2020     -1.1424     8    4    1
  17  N    -0.000000     -0.5066     -0.7194     1    2    3
  18  N    -0.000000     -0.5833      1.0015     2    1    3
  19  N    -0.000000     -0.6114      0.9471     3    2    1
  20  N    -0.000000     -0.6498      0.7445     4    1    2
  21  N    -0.000000     -1.1352      1.1360     1    2    3
  22  N    -0.000000     -0.5636     -0.9153     2    1    3
  23  N    -0.000000     -0.5894     -0.9765     3    2    1
  24  N    -0.000000     -1.0206     -1.0092     4    1    2
  25  C    -0.000000     -0.3031      3.3893     9    5    1
  26  C    -0.000000     -0.3176      3.6883    10    6    2
  27  C    -0.000000     -0.2986      3.4335    11    7    3
  28  C    -0.000000     -0.3182      0.3632    12    8    4
  29  C    -0.000000     -0.2603      0.5638    13    5    1
  30  C    -0.000000     -0.2794      0.9260    14    6    2
  31  C    -0.000000     -0.3045      0.5440    15    7    3
  32  C    -0.000000     -0.2872      3.2860    16    8    4
  33  O    -0.000000     -0.3363     -2.4853    25    9    5
  34  O    -0.000000     -0.2751     -2.6339    26   10    6
  35  O    -0.000000     -0.2894     -2.4628    27   11    7
  36  O    -0.000000     -0.2741      2.6669    28   12    8
  37  O    -0.000000     -0.3166      2.7240    29   13    5
  38  O    -0.000000     -0.2952      2.3069    30   14    6
  39  O    -0.000000     -0.3034      2.4789    31   15    7
  40  O    -0.000000     -0.3104     -2.4791    32   16    8
  41  C    -0.000000     -0.8526     -1.6785     9    5    1
  42  C    -0.000000     -0.8138     -2.7692    10    6    2
  43  C    -0.000000     -0.8630     -2.1499    11    7    3
  44  C    -0.000000     -0.8553      2.0808    12    8    4
  45  C    -0.000000     -0.8292      2.5222    13    5    1
  46  C    -0.000000     -0.8832      1.5975    14    6    2
  47  C    -0.000000     -0.9371      2.3102    15    7    3
  48  C    -0.000000     -0.8847     -2.1908    16    8    4
  49  H    -0.000000      0.8796      1.4469    41    9    5
  50  H    -0.000000      0.8935      2.6363    42   10    6
  51  H    -0.000000      0.8963      1.8948    43   11    7
  52  H    -0.000000      0.8911     -1.8961    44   12    8
  53  H    -0.000000      0.8850     -2.4229    45   13    5
  54  H    -0.000000      0.8730     -1.2246    46   14    6
  55  H    -0.000000      0.8755     -2.1511    47   15    7
  56  H    -0.000000      0.8792      1.9906    48   16    8
  57  H    -0.000000     -0.6646     -1.2450    41    9    5
  58  H    -0.000000     -0.5930     -0.1054    42   10    6
  59  H    -0.000000     -0.6355     -0.8250    43   11    7
  60  H    -0.000000     -0.6528      0.7676    44   12    8
  61  H    -0.000000     -0.5936      0.3131    45   13    5
  62  H    -0.000000     -0.6655      1.4302    46   14    6
  63  H    -0.000000     -0.6176      0.5654    47   15    7
  64  H    -0.000000     -0.6263     -0.7201    48   16    8
  65  H    -0.000000      0.6411      0.2816     5    1    2
  66  H    -0.000000      0.6331     -0.3275     6    2    1
  67  H    -0.000000      0.6717      0.0264     7    3    2
  68  H    -0.000000      0.6369     -0.0472     8    4    1
  69  H    -0.000000     -1.0591      0.4199     1    2    3
  70  H    -0.000000      0.2308      0.0956     2    1    3
  71  H    -0.000000      0.2546      0.0136     3    2    1
  72  H    -0.000000     -0.9696     -0.2725     4    1    2
  73  CL   -0.044762      1.0108     -0.4046    25    9    5
Be      (a,b,c, in MHz) :     92.522     92.522     81.904
Be - B0 (a,b,c, in MHz) :     -1.237     -1.164     -1.352
 corrected structure on <xtb_mdav.coord>
 normal exit of md()
 
speedup  7.65
cpu  time for all   21 h 36 m 20.3 s
wall time for all    2 h 49 m 21.4 s
