 
        ______________________________________
       |                                      |
       |           ==================         |
       |                 x T B                |
       |           ==================         |
       |               S. Grimme              |
       |        Universitaet Bonn, MCTC       |
       |         2015-18, Version 5.0         |
       |      Sat Jan 20 11:00:33 CET 2018    |
       |______________________________________|
 
        This code comes without any warranty
        for non-commercial, academia use only.
        Cite GFN-xTB work as:
        S. Grimme, C. Bannwarth, P. Shushkov
        JCTC, 13 (2017) 1989-2009
        for GFN2:
        C. Bannwarth, S. Ehlert, S. Grimme
        to be published.
        sTDA-xTB:
        S. Grimme  &  C. Bannwarth, JCP 145 (2016) 054103
        in the mass-spec context additionally:
        V. Asgeirsson, C.Bauer, S. Grimme, Chem. Sci. 8 (2017) 4879
 
        with help from
        P. Shushkov, G. Brandenburg, S. Dohm, J. Pisarek,
        F. März, M. Checinski, S. Ehrlich, S. Spicher, 
        P. Pracht, E. Caldeweyher, S. Ehlert, and C. Bannwarth.
 
        usage        :
        xtb <coord_file> [options]
        where <coord_file> is a valid file of TM)
        (*coord, Bohr) or xmol (*xyz, Angstroem)
        format.

        options:
        -chrg <int>   : molecular charge
        -uhf  <int>   : # of unpaired electrons(=2*S)
        -nox          : skip second, extended part in sTDA-xTB
        -pop          : do population analysis
                      : (default for -nox)
        -mowr <real>  : cut MO write above (def.3 Eh)
        -molden       : write formatted molden file
        -parx <file>  : read parameters for sTDA-xTB
                        calc (def:~/.param_stda2.xtb)
        -parv <file>  : read parameters for vTB part in
                        sTDA-xTB (def: ~/.param_stda1.xtb)
        -xtemp <real> : el. temp for xTB (def. 0 K)
        -etemp <real> : el. temp for GFN (def. 300 K)
        -fod          : do a xTB calc. of the FOD
                        and write molden.input file 
                        with appropriate occupations
                        for plotting. Def. T=12500 K
 
        -gfn          : use GFN-xTB
        -grad         : GFN-xTB gradient
        -acc <real>   : GFN-xTB accuracy (def. 1.0)
        -opt [level]  : optimize at GFN-xTB
                      : level=crude,vloose,loose,
                      :       tight,vtight
        -hess         : compute Hessian at GFN-xTB
        -ohess        : optimize and compute Hessian
        -omd          : optimize and do MD
        -siman        : conformational search
        -screen       : opt. loop over ensemble
        -gmd          : annealed MD for GMD procedure
        -modef        : vib mode following
        -gbsa [string1] [string2]
                        use GBSA implicit solvent
                        for solvent [string1] and
                        solvation state [string2]=
                        reference, bar1M (default=1M)
        additional GFN/opt/MD/siman options read from
        $XTBHOME/.xtbrc or $set in coordinate file
 
       spin and charge state information can be on:
       <.CHRG> (charge) and <.UHF> (=nalpha-nbeta)
       -uhf and -chrg override the file info.
       useful machine settings:
       setenv MKL_NUM_THREADS <NCORE_ON_YOUR_MACHINE>
       setenv OMP_STACKSIZE 500m
       limit stacksize unlimited
 
       total energies in Eh, gaps/HL energies in eV
       please read REVISION and HOWTO files carefully
 =============================
  # OMP threads =                     1
 =============================
 
 xtbhome directory:/Applications/xtb/
 
 argument                      1 :-chrg
 argument                      2 :-1
 argument                      3 :-gmd
 
 number of atoms            :    73
 number of electrons        :   256
 charge                     : -1
 spin                       : 0.0
 first test random number   :  0.9444
 
 
KAB for pair M(3d)-M(3d) :  1.1000
KAB for pair M(4d)-M(4d) :  1.2000
KAB for pair M(5d)-M(5d) :  1.2000
 -----------------------------------------
  G F N (Geometry, Frequency, Non-covalent)
        parametrization, version                     2
 /Applications/xtb/.param_gfn2.xtb
 -----------------------------------------
      method parameters     
 k(s)        :  1.8500
 k(p)        :  2.2500
 k(d)        :  2.0000
 k(f)        :  0.0000
 alphaj      :  1.0000
 kEN (H0ij)  : -2.3620
 D3 a1       :  0.6900
 D3 a2       :  4.0530
 D3 s8       :  2.0000
 D3atm       :  1.0000
 AESdamp     :  5.5000
 AESrad      :  1.9230
 expscalexp  : -0.2500
 
     -------------------------
     ! NO SOLVENT MODEL USED !
     -------------------------
 
 doing EN charges ...
 sum q : -0.1000000D+01
 point charge moment (au)
     X       Y       Z   
  -0.0000  -0.0000  -0.1882  total (Debye):    0.478
 
            Z      q(EN)   CN      Cart. coordinates
     1  C   4.0    0.20    4.34    -5.94105    -3.02289     0.01653
     2  C   4.0    0.20    4.34     3.02289    -5.94105     0.01653
     3  C   4.0    0.20    4.34     5.94105     3.02289     0.01653
     4  C   4.0    0.20    4.34    -3.02289     5.94105     0.01653
     5  C   4.0    0.20    4.34    -6.66297    -0.19157     0.01652
     6  C   4.0    0.20    4.34     0.19157    -6.66297     0.01652
     7  C   4.0    0.20    4.34     6.66297     0.19157     0.01652
     8  C   4.0    0.20    4.34    -0.19157     6.66297     0.01652
     9  N   5.0   -0.23    3.26    -5.62210     0.71971    -2.32861
    10  N   5.0   -0.23    3.26    -0.71971    -5.62210    -2.32861
    11  N   5.0   -0.23    3.26     5.62210    -0.71971    -2.32861
    12  N   5.0   -0.23    3.26     0.71971     5.62211    -2.32861
    13  N   5.0   -0.23    3.26    -4.59099    -3.32452    -2.32866
    14  N   5.0   -0.23    3.26     3.32452    -4.59099    -2.32866
    15  N   5.0   -0.23    3.26     4.59099     3.32452    -2.32866
    16  N   5.0   -0.23    3.26    -3.32452     4.59100    -2.32866
    17  C   4.0    0.45    3.29    -4.58330    -1.16896    -3.77496
    18  C   4.0    0.45    3.29     1.16896    -4.58330    -3.77496
    19  C   4.0    0.45    3.29     4.58330     1.16896    -3.77495
    20  C   4.0    0.45    3.29    -1.16896     4.58330    -3.77495
    21  O   6.0   -0.38    1.07    -3.98764    -1.01708    -5.95892
    22  O   6.0   -0.38    1.07     1.01708    -3.98764    -5.95892
    23  O   6.0   -0.38    1.07     3.98764     1.01708    -5.95892
    24  O   6.0   -0.38    1.07    -1.01708     3.98764    -5.95892
    25  C   4.0    0.24    4.16    -5.56158     3.30122    -3.14312
    26  C   4.0    0.24    4.16    -3.30122    -5.56158    -3.14312
    27  C   4.0    0.24    4.16     5.56158    -3.30122    -3.14312
    28  C   4.0    0.24    4.16     3.30122     5.56158    -3.14312
    29  H   1.0   -0.06    1.00    -7.24937     4.30293    -2.47751
    30  H   1.0   -0.06    1.00    -4.30292    -7.24937    -2.47751
    31  H   1.0   -0.06    1.00     7.24937    -4.30292    -2.47751
    32  H   1.0   -0.06    1.00     4.30293     7.24937    -2.47751
    33  H   1.0   -0.06    1.01    -5.46082     3.24142    -5.21624
    34  H   1.0   -0.06    1.01    -3.24142    -5.46082    -5.21624
    35  H   1.0   -0.06    1.01     5.46082    -3.24141    -5.21624
    36  H   1.0   -0.06    1.01     3.24142     5.46082    -5.21624
    37  H   1.0   -0.06    1.00    -8.73509     0.12744     0.00641
    38  H   1.0   -0.06    1.00    -0.12744    -8.73509     0.00641
    39  H   1.0   -0.06    1.00     8.73509    -0.12744     0.00641
    40  H   1.0   -0.06    1.00     0.12744     8.73509     0.00641
    41  H   1.0   -0.06    1.00    -7.60745    -4.29511     0.00641
    42  H   1.0   -0.06    1.00     4.29511    -7.60745     0.00641
    43  H   1.0   -0.06    1.00     7.60745     4.29511     0.00641
    44  H   1.0   -0.06    1.00    -4.29511     7.60745     0.00641
    45  N   5.0   -0.23    3.27    -5.60990     0.72214     2.32254
    46  N   5.0   -0.23    3.27    -0.72214    -5.60990     2.32254
    47  N   5.0   -0.23    3.27     5.60991    -0.72214     2.32254
    48  N   5.0   -0.23    3.27     0.72214     5.60990     2.32254
    49  N   5.0   -0.23    3.27    -4.57919    -3.32079     2.32267
    50  N   5.0   -0.23    3.27     3.32079    -4.57919     2.32267
    51  N   5.0   -0.23    3.27     4.57919     3.32079     2.32267
    52  N   5.0   -0.23    3.27    -3.32079     4.57920     2.32267
    53  C   4.0    0.45    3.30    -4.38666    -1.11879     3.72272
    54  C   4.0    0.45    3.30     1.11879    -4.38666     3.72272
    55  C   4.0    0.45    3.30     4.38669     1.11880     3.72273
    56  C   4.0    0.45    3.30    -1.11880     4.38669     3.72273
    57  O   6.0   -0.38    1.07    -3.84751    -0.98128     5.91834
    58  O   6.0   -0.38    1.07     0.98129    -3.84751     5.91834
    59  O   6.0   -0.38    1.07     3.84753     0.98129     5.91835
    60  O   6.0   -0.38    1.07    -0.98129     3.84753     5.91835
    61  C   4.0    0.24    4.17    -5.54768     3.29297     3.13850
    62  C   4.0    0.24    4.17    -3.29297    -5.54768     3.13850
    63  C   4.0    0.24    4.17     5.54768    -3.29297     3.13850
    64  C   4.0    0.24    4.17     3.29297     5.54768     3.13850
    65  H   1.0   -0.06    1.00    -7.24684     4.30144     2.51046
    66  H   1.0   -0.06    1.00    -4.30144    -7.24684     2.51046
    67  H   1.0   -0.06    1.00     7.24684    -4.30144     2.51046
    68  H   1.0   -0.06    1.00     4.30144     7.24684     2.51046
    69  H   1.0   -0.06    1.01    -5.40666     3.20924     5.20751
    70  H   1.0   -0.06    1.01    -3.20924    -5.40665     5.20751
    71  H   1.0   -0.06    1.01     5.40666    -3.20924     5.20751
    72  H   1.0   -0.06    1.01     3.20924     5.40666     5.20751
    73  F   7.0   -0.09    0.08    -0.00007    -0.00014     2.04736
 
  Z AO/shell   Hii/eV     exponent
  1     Sat Jan 20 17:55:17 CET 2018    EN: 2.200 GAM: 0.531  GM3:-0.4370
     1s    -10.248275    1.266496
  6     Sat Jan 20 17:55:17 CET 2018    EN: 2.550 GAM: 0.417  GM3:-0.0654
     2s    -15.292509    2.030071
     2p    -10.408465    1.801676
  7     Sat Jan 20 17:55:17 CET 2018    EN: 3.040 GAM: 0.444  GM3:-0.1301
     2s    -16.687725    2.226550
     2p    -13.175143    1.981921
  8     Sat Jan 20 17:55:17 CET 2018    EN: 3.440 GAM: 0.468  GM3: 0.0937
     2s    -20.924998    2.442614
     2p    -15.243501    2.233841
  9     Sat Jan 20 11:31:23 CET 2018    EN: 3.980 GAM: 0.596  GM3: 0.1504
     2s    -24.754958    2.510414
     2p    -15.597656    2.417462
 no old-style atom pair restraing (fixing) potential
 
 molecular fragmentation (1/2 indicates fragments):
1111111111111111111111111111111111111111111111111111111111111111111111112
# atoms in fragment 1/2:    72     1
 fragment masses (1/2) :      664.56       19.00
CMA distance (Bohr)    :   2.054
constraining FC (au)   :  0.0500
 
             =======================================
             |                                     |
             |        S C C  calculation           |
             |                                     |
             =======================================
 #proc     :                      1
 Ncao      :                    220
 Nao       :                    220
 Nel       :                    256
 T(el)     :   300.0
 intcut    :    25.0
 scfconv   :  0.100E-05
   qconv   :  0.200E-04
 intneglect:  0.100E-07
 broydamp  :      0.400
 Nshell    :                    122
 iter      E             dE          RMSdq      gap      omega  full diag
   1   -152.8936570 -0.152894E+03  0.993E+00    4.66       0.0  T
   2   -153.4144296 -0.520773E+00  0.543E+00    3.27       1.0  T
   3   -153.2593888  0.155041E+00  0.256E+00    0.24       1.0  T
   4   -153.5273884 -0.268000E+00  0.731E-01    2.57       1.0  T
   5   -153.5388118 -0.114234E-01  0.315E-01    1.60       1.0  T
   6   -153.5396971 -0.885281E-03  0.167E-01    0.93       1.0  T
   7   -153.5417153 -0.201819E-02  0.640E-02    1.25       1.0  T
   8   -153.5417751 -0.597470E-04  0.237E-02    1.23       1.0  T
   9   -153.5417837 -0.866541E-05  0.156E-02    1.23       1.0  T
  10   -153.5418010 -0.172382E-04  0.381E-03    1.20       3.1  T
  11   -153.5418012 -0.222054E-06  0.196E-03    1.20       6.0  T
  12   -153.5418013 -0.137553E-06  0.556E-04    1.20      21.1  T
  13   -153.5418014 -0.174466E-07  0.136E-04    1.20      85.9  T
  14   -153.5418014 -0.841879E-09  0.473E-05    1.20     247.3  T
speedup  5.35
cpu  time for SCC    3.35 s
wall time for SCC    0.63 s

          eigenvalues
 #    :         116        117        118        119        120        121        122        123
 occ. :        2.000      2.000      2.000      2.000      2.000      2.000      2.000      2.000
 eps  :        -7.539     -7.539     -7.302     -7.279     -7.279     -7.171     -7.066     -7.033
 #    :         124        125        126        127        128        129        130        131
 occ. :        2.000      2.000      2.000      2.000      2.000      0.000      0.000      0.000
 eps  :        -7.033     -6.949     -3.491     -3.491     -3.409     -2.209     -1.953     -1.953
 #    :         132        133        134        135        136        137        138        139
 occ. :        0.000      0.000      0.000      0.000      0.000      0.000      0.000      0.000
 eps  :        -1.756     -1.578     -1.303     -1.303     -1.235      2.805      2.868      2.891
 
 
 Mulliken/CM5 charges        n(s)   n(p)   n(d)
     1 C   0.06422  0.14672   1.078  2.858  0.000
     2 C   0.06422  0.14672   1.078  2.858  0.000
     3 C   0.06423  0.14672   1.078  2.858  0.000
     4 C   0.06423  0.14672   1.078  2.858  0.000
     5 C   0.06423  0.14673   1.078  2.858  0.000
     6 C   0.06423  0.14673   1.078  2.858  0.000
     7 C   0.06423  0.14673   1.078  2.858  0.000
     8 C   0.06423  0.14673   1.078  2.858  0.000
     9 N  -0.03504 -0.27700   1.127  3.908  0.000
    10 N  -0.03504 -0.27700   1.127  3.908  0.000
    11 N  -0.03504 -0.27700   1.127  3.908  0.000
    12 N  -0.03504 -0.27700   1.127  3.908  0.000
    13 N  -0.03505 -0.27701   1.127  3.908  0.000
    14 N  -0.03505 -0.27701   1.127  3.908  0.000
    15 N  -0.03505 -0.27701   1.127  3.908  0.000
    16 N  -0.03505 -0.27701   1.127  3.908  0.000
    17 C   0.22834  0.40203   1.054  2.717  0.000
    18 C   0.22834  0.40203   1.054  2.717  0.000
    19 C   0.22834  0.40203   1.054  2.717  0.000
    20 C   0.22834  0.40203   1.054  2.717  0.000
    21 O  -0.41552 -0.45730   1.724  4.692  0.000
    22 O  -0.41552 -0.45730   1.724  4.692  0.000
    23 O  -0.41552 -0.45729   1.724  4.692  0.000
    24 O  -0.41552 -0.45729   1.724  4.692  0.000
    25 C   0.02981  0.05704   1.072  2.899  0.000
    26 C   0.02981  0.05704   1.072  2.899  0.000
    27 C   0.02981  0.05704   1.072  2.899  0.000
    28 C   0.02981  0.05704   1.072  2.899  0.000
    29 H   0.03317  0.11008   0.967  0.000  0.000
    30 H   0.03317  0.11008   0.967  0.000  0.000
    31 H   0.03317  0.11008   0.967  0.000  0.000
    32 H   0.03317  0.11008   0.967  0.000  0.000
    33 H   0.07075  0.15983   0.929  0.000  0.000
    34 H   0.07075  0.15983   0.929  0.000  0.000
    35 H   0.07075  0.15983   0.929  0.000  0.000
    36 H   0.07075  0.15983   0.929  0.000  0.000
    37 H   0.02126  0.09981   0.979  0.000  0.000
    38 H   0.02126  0.09981   0.979  0.000  0.000
    39 H   0.02126  0.09981   0.979  0.000  0.000
    40 H   0.02126  0.09981   0.979  0.000  0.000
    41 H   0.02126  0.09982   0.979  0.000  0.000
    42 H   0.02126  0.09982   0.979  0.000  0.000
    43 H   0.02126  0.09982   0.979  0.000  0.000
    44 H   0.02126  0.09982   0.979  0.000  0.000
    45 N  -0.03497 -0.27933   1.121  3.914  0.000
    46 N  -0.03497 -0.27933   1.121  3.914  0.000
    47 N  -0.03497 -0.27933   1.121  3.914  0.000
    48 N  -0.03497 -0.27933   1.121  3.914  0.000
    49 N  -0.03499 -0.27935   1.121  3.914  0.000
    50 N  -0.03499 -0.27935   1.121  3.914  0.000
    51 N  -0.03499 -0.27935   1.121  3.914  0.000
    52 N  -0.03499 -0.27935   1.121  3.914  0.000
    53 C   0.22784  0.39925   1.060  2.712  0.000
    54 C   0.22784  0.39925   1.060  2.712  0.000
    55 C   0.22784  0.39925   1.060  2.712  0.000
    56 C   0.22784  0.39925   1.060  2.712  0.000
    57 O  -0.40224 -0.44510   1.723  4.679  0.000
    58 O  -0.40224 -0.44510   1.723  4.679  0.000
    59 O  -0.40223 -0.44509   1.723  4.679  0.000
    60 O  -0.40223 -0.44509   1.723  4.679  0.000
    61 C   0.02625  0.05510   1.073  2.900  0.000
    62 C   0.02625  0.05510   1.073  2.900  0.000
    63 C   0.02625  0.05510   1.073  2.900  0.000
    64 C   0.02625  0.05510   1.073  2.900  0.000
    65 H   0.02932  0.10604   0.971  0.000  0.000
    66 H   0.02932  0.10604   0.971  0.000  0.000
    67 H   0.02932  0.10604   0.971  0.000  0.000
    68 H   0.02932  0.10604   0.971  0.000  0.000
    69 H   0.07396  0.16471   0.926  0.000  0.000
    70 H   0.07396  0.16471   0.926  0.000  0.000
    71 H   0.07396  0.16471   0.926  0.000  0.000
    72 H   0.07396  0.16471   0.926  0.000  0.000
    73 F  -0.73048 -0.72827   1.994  5.737  0.000
 
 Wiberg/Mayer (AO) data. WBOs > 0.1 written file <wbo>
 largest (>0.05) Wiberg bond orders for each atom
           total WBO             WBO to atom ...
     1  C   3.979    N   49 1.009    N   13 0.984    C    5 0.957    H   41 0.945
     2  C   3.979    N   50 1.009    N   14 0.984    C    6 0.957    H   42 0.945
     3  C   3.979    N   51 1.009    N   15 0.984    C    7 0.957    H   43 0.945
     4  C   3.979    N   52 1.009    N   16 0.984    C    8 0.957    H   44 0.945
     5  C   3.979    N   45 1.009    N    9 0.984    C    1 0.957    H   37 0.945
     6  C   3.979    N   46 1.009    N   10 0.984    C    2 0.957    H   38 0.945
     7  C   3.979    N   47 1.009    N   11 0.984    C    3 0.957    H   39 0.945
     8  C   3.979    N   48 1.009    N   12 0.984    C    4 0.957    H   40 0.945
     9  N   3.425    C   17 1.111    C   25 0.999    C    5 0.984    O   21 0.149
    10  N   3.425    C   18 1.111    C   26 0.999    C    6 0.984    O   22 0.149
    11  N   3.425    C   19 1.111    C   27 0.999    C    7 0.984    O   23 0.149
    12  N   3.425    C   20 1.111    C   28 0.999    C    8 0.984    O   24 0.149
    13  N   3.425    C   17 1.111    C   26 0.999    C    1 0.984    O   21 0.149
    14  N   3.425    C   18 1.111    C   27 0.999    C    2 0.984    O   22 0.149
    15  N   3.425    C   19 1.111    C   28 0.999    C    3 0.984    O   23 0.149
    16  N   3.425    C   20 1.111    C   25 0.999    C    4 0.984    O   24 0.149
    17  C   3.967    O   21 1.679    N    9 1.111    N   13 1.111
    18  C   3.967    O   22 1.679    N   10 1.111    N   14 1.111
    19  C   3.967    O   23 1.679    N   11 1.111    N   15 1.111
    20  C   3.967    O   24 1.679    N   12 1.111    N   16 1.111
    21  O   2.036    C   17 1.679    N    9 0.149    N   13 0.149
    22  O   2.036    C   18 1.679    N   10 0.149    N   14 0.149
    23  O   2.036    C   19 1.679    N   11 0.149    N   15 0.149
    24  O   2.036    C   20 1.679    N   12 0.149    N   16 0.149
    25  C   3.971    N    9 0.999    N   16 0.999    H   29 0.964    H   33 0.956
    26  C   3.971    N   10 0.999    N   13 0.999    H   30 0.964    H   34 0.956
    27  C   3.971    N   11 0.999    N   14 0.999    H   31 0.964    H   35 0.956
    28  C   3.971    N   12 0.999    N   15 0.999    H   32 0.964    H   36 0.956
    29  H   0.998    C   25 0.964
    30  H   0.998    C   26 0.964
    31  H   0.998    C   27 0.964
    32  H   0.998    C   28 0.964
    33  H   0.994    C   25 0.956
    34  H   0.994    C   26 0.956
    35  H   0.994    C   27 0.956
    36  H   0.994    C   28 0.956
    37  H   0.999    C    5 0.945
    38  H   0.999    C    6 0.945
    39  H   0.999    C    7 0.945
    40  H   0.999    C    8 0.945
    41  H   0.999    C    1 0.945
    42  H   0.999    C    2 0.945
    43  H   0.999    C    3 0.945
    44  H   0.999    C    4 0.945
    45  N   3.399    C   53 1.070    C    5 1.009    C   61 0.999    O   57 0.135
    46  N   3.399    C   54 1.070    C    6 1.009    C   62 0.999    O   58 0.135
    47  N   3.399    C   55 1.070    C    7 1.009    C   63 0.999    O   59 0.135
    48  N   3.399    C   56 1.070    C    8 1.009    C   64 0.999    O   60 0.135
    49  N   3.399    C   53 1.070    C    1 1.009    C   62 0.999    O   57 0.135
    50  N   3.399    C   54 1.070    C    2 1.009    C   63 0.999    O   58 0.135
    51  N   3.399    C   55 1.070    C    3 1.009    C   64 0.999    O   59 0.135
    52  N   3.399    C   56 1.070    C    4 1.009    C   61 0.999    O   60 0.135
    53  C   3.965    O   57 1.691    N   45 1.070    N   49 1.070    F   73 0.070
    54  C   3.965    O   58 1.691    N   46 1.070    N   50 1.070    F   73 0.070
    55  C   3.965    O   59 1.691    N   47 1.070    N   51 1.070    F   73 0.070
    56  C   3.965    O   60 1.691    N   48 1.070    N   52 1.070    F   73 0.070
    57  O   2.055    C   53 1.691    N   45 0.135    N   49 0.135
    58  O   2.055    C   54 1.691    N   46 0.135    N   50 0.135
    59  O   2.055    C   55 1.691    N   47 0.135    N   51 0.135
    60  O   2.055    C   56 1.691    N   48 0.135    N   52 0.135
    61  C   3.971    N   45 0.999    N   52 0.999    H   65 0.963    H   69 0.955
    62  C   3.971    N   46 0.999    N   49 0.999    H   66 0.963    H   70 0.955
    63  C   3.971    N   47 0.999    N   50 0.999    H   67 0.963    H   71 0.955
    64  C   3.971    N   48 0.999    N   51 0.999    H   68 0.963    H   72 0.955
    65  H   0.999    C   61 0.963
    66  H   0.999    C   62 0.963
    67  H   0.999    C   63 0.963
    68  H   0.999    C   64 0.963
    69  H   0.994    C   61 0.955
    70  H   0.994    C   62 0.955
    71  H   0.994    C   63 0.955
    72  H   0.994    C   64 0.955
    73  F   0.512    C   54 0.070    C   53 0.070    C   55 0.070    C   56 0.070
 density
 
 cube file module (SG, 7/16)
 cube_pthr     :   0.005
 cube_step     :   0.400
 non-zero P (%):  32.666   nmat:    7941
 Grid Boundaries (x y z) :
   11.7350916791804        11.7350914187832        8.91834787094701     
  -11.7350873287021       -11.7350876269439       -8.95892457713321     
 Total # of points                156645
 writing density.cub
 N    (numint) : ******
cpu  time for cube   42.23 s
wall time for cube   41.00 s
 
molecular dipole:
                 x           y           z       tot (Debye)
 q only:        0.000       0.000      -1.172
   full:        0.000       0.000      -1.350       3.430
molecular quadrupole (traceless):
                xx          xy          yy          xz          yz          zz
 q only:       51.584      -0.000      51.584       0.000       0.001    -103.167
  q+dip:       61.666      -0.000      61.666       0.000       0.001    -123.331
   full:       62.666      -0.000      62.666       0.000       0.001    -125.333
 SCC converged in                     14  cycles
 
SCC energy    :    -153.5418014
rep           :       1.5068861
ES            :       0.2076853
AES           :      -0.0058395
disp          :      -0.1094718
XB            :       0.0000000
fix           :       0.0000000
total E       :    -152.1443871
atomizationE  :      19.9898423    12543.82
(atE without considerung molecular charge,
 total energy contains solvation terms)
H-L gap (eV)  :          1.2003
 
       ===================================
       |          GMD driver             |
       ===================================
 
 
 MD time /ps        :   50.00
 dt /fs             :    4.00
 SCC accuracy       :    1.00
 temperature /K     :  298.15
 max steps          : 12500
 block length (av.) :   875
 dumpstep(trj) /fs  :   50.00    12
 dumpstep(coords)/fs: 1000.00   250
 minimum runtime(ps):   5.0
 maximum runtime(ps):  50.0
 H atoms mass (amu) :     4
 # deg. of freedom  :   135
 SHAKE on. # bonds  :                    84  all: T
 Berendsen THERMOSTAT on
 EQUILIBRATION mode
         time (ps)    <Epot>      Ekin   <T>   T     Etot
  q data taken from xtbrestart
  CAMM data taken from xtbrestart
      0    0.00      0.00000   0.0380    0.    0.  -152.10641
est. speed in wall clock h for 100 ps :  3.57
    200    0.80   -151.38909   0.0209   97.   98.  -152.12938
    400    1.60   -151.76854   0.0201   93.   94.  -152.13100
    600    2.40   -151.89560   0.0180   92.   84.  -152.12867
    800    3.20   -151.95908   0.0207   91.   97.  -152.12964
block <Epot> / <T> :    -152.14911   91.     drift:  0.99D+02   Tbath : 134.
   1000    4.00   -151.99649   0.0260   94.  122.  -152.11136
   1200    4.80   -152.02042   0.0280  101.  131.  -152.11168
   1400    5.60   -152.03746   0.0320  106.  150.  -152.11126
   1600    6.40   -152.05023   0.0280  109.  131.  -152.11060
block <Epot> / <T> :    -152.14053  131.     drift:  0.99D+02   Tbath : 201.
   1800    7.20   -152.06009   0.0355  113.  166.  -152.09651
   2000    8.00   -152.06678   0.0435  121.  203.  -152.08049
   2200    8.80   -152.07212   0.0428  128.  200.  -152.08103
   2400    9.60   -152.07655   0.0405  134.  189.  -152.08248
   2600   10.40   -152.08029   0.0373  139.  174.  -152.08890
block <Epot> / <T> :    -152.12629  197.     drift:  0.99D+02   Tbath : 298.
   2800   11.20   -152.08259   0.0628  148.  294.  -152.04274
   3000   12.00   -152.08405   0.0565  158.  264.  -152.05223
   3200   12.80   -152.08530   0.0679  167.  318.  -152.04264
   3400   13.60   -152.08636   0.0630  174.  295.  -152.04554
block <Epot> / <T> :    -152.10522  293.     drift:  0.15D-01   Tbath : 298.
   3600   14.40   -152.08733   0.0701  181.  328.  -152.03035
   3800   15.20   -152.08817   0.0579  187.  271.  -152.04718
   4000   16.00   -152.08897   0.0616  193.  288.  -152.04282
   4200   16.80   -152.08963   0.0733  198.  343.  -152.03972
block <Epot> / <T> :    -152.10368  298.     drift:  0.13D-01   Tbath : 298.
   4400   17.60   -152.09031   0.0671  203.  314.  -152.03640
   4600   18.40   -152.09082   0.0628  207.  294.  -152.03416
   4800   19.20   -152.09134   0.0625  210.  292.  -152.04725
   5000   20.00   -152.09184   0.0634  214.  297.  -152.03276
   5200   20.80   -152.09229   0.0560  217.  262.  -152.04624
block <Epot> / <T> :    -152.10317  298.     drift:  0.71D-02   Tbath : 298.
   5400   21.60   -152.09271   0.0619  220.  290.  -152.03709
   5600   22.40   -152.09313   0.0726  223.  340.  -152.04410
   5800   23.20   -152.09350   0.0632  226.  296.  -152.04263
   6000   24.00   -152.09385   0.0616  228.  288.  -152.04442
block <Epot> / <T> :    -152.10410  299.     drift:  0.39D-03   Tbath : 298.
 GOOD AVERAGES REACHED
 average properties 
 Epot               :  -152.118872219790     
 Epot (accurate SCC):  -152.118964180137     
 Ekin               :  4.907081666345363E-002
 Etot               :  -152.069801403126     
 T                  :   229.560296968978     
 normal exit of md()
 
 MD time /ps        :   50.00
 dt /fs             :    4.00
 SCC accuracy       :    1.00
 temperature /K     :  298.15
 max steps          : 50000
 block length (av.) :   875
 dumpstep(trj) /fs  :   50.00    12
 dumpstep(coords)/fs: 1000.00   250
 minimum runtime(ps):  50.0
 maximum runtime(ps): 200.0
 H atoms mass (amu) :     4
 # deg. of freedom  :   135
 SHAKE on. # bonds  :                    84  all: T
 Berendsen THERMOSTAT on
 GMD mode
 RESTART
         time (ps)    <Epot>      Ekin   <T>   T     Etot
  q data taken from xtbrestart
  CAMM data taken from xtbrestart
 reading input structure for Re-R0 averaging
      0    0.00      0.00000   0.0634    0.    0.  -152.03840
est. speed in wall clock h for 100 ps :  3.57
    200    0.80   -151.34719   0.0601  294.  281.  -152.04395
    400    1.60   -151.72476   0.0658  297.  308.  -152.03951
    600    2.40   -151.85099   0.0652  297.  305.  -152.03607
    800    3.20   -151.91417   0.0554  297.  259.  -152.04151
block <Epot> / <T> :    -152.10407  297.     drift:  0.99D+02   Tbath : 298.
   1000    4.00   -151.95205   0.0622  297.  291.  -152.04839
   1200    4.80   -151.97737   0.0649  297.  304.  -152.04341
   1400    5.60   -151.99548   0.0674  298.  315.  -152.03138
   1600    6.40   -152.00900   0.0713  297.  334.  -152.04388
block <Epot> / <T> :    -152.10384  298.     drift:  0.99D+02   Tbath : 298.
   1800    7.20   -152.01949   0.0627  297.  293.  -152.03684
   2000    8.00   -152.02789   0.0636  297.  298.  -152.03187
   2200    8.80   -152.03475   0.0691  297.  323.  -152.03909
   2400    9.60   -152.04048   0.0615  298.  288.  -152.04258
   2600   10.40   -152.04537   0.0672  298.  315.  -152.04085
block <Epot> / <T> :    -152.10364  298.     drift:  0.99D+02   Tbath : 298.
   2800   11.20   -152.04953   0.0640  298.  299.  -152.03849
   3000   12.00   -152.05316   0.0677  298.  317.  -152.04093
   3200   12.80   -152.05631   0.0639  298.  299.  -152.03781
   3400   13.60   -152.05911   0.0627  298.  293.  -152.04462
block <Epot> / <T> :    -152.10373  298.     drift:  0.12D-03   Tbath : 298.
   3600   14.40   -152.06157   0.0541  298.  253.  -152.04487
   3800   15.20   -152.06380   0.0609  298.  285.  -152.03291
   4000   16.00   -152.06576   0.0665  298.  311.  -152.04083
   4200   16.80   -152.06756   0.0716  298.  335.  -152.04141
block <Epot> / <T> :    -152.10358  298.     drift:  0.67D-04   Tbath : 298.
   4400   17.60   -152.06921   0.0637  298.  298.  -152.03887
   4600   18.40   -152.07069   0.0687  298.  322.  -152.03343
   4800   19.20   -152.07200   0.0650  298.  304.  -152.03147
   5000   20.00   -152.07323   0.0662  298.  310.  -152.04013
   5200   20.80   -152.07435   0.0645  298.  302.  -152.04235
block <Epot> / <T> :    -152.10264  297.     drift:  0.31D-03   Tbath : 298.
   5400   21.60   -152.07542   0.0694  298.  325.  -152.03755
   5600   22.40   -152.07639   0.0608  298.  284.  -152.03653
   5800   23.20   -152.07734   0.0687  298.  322.  -152.03811
   6000   24.00   -152.07818   0.0633  298.  296.  -152.04049
block <Epot> / <T> :    -152.10322  299.     drift:  0.25D-03   Tbath : 298.
   6200   24.80   -152.07900   0.0539  298.  252.  -152.05164
   6400   25.60   -152.07979   0.0589  298.  275.  -152.03347
   6600   26.40   -152.08052   0.0641  298.  300.  -152.04581
   6800   27.20   -152.08118   0.0717  298.  336.  -152.04097
   7000   28.00   -152.08182   0.0598  298.  280.  -152.04603
block <Epot> / <T> :    -152.10373  298.     drift: -0.10D-03   Tbath : 298.
   7200   28.80   -152.08243   0.0674  298.  315.  -152.04413
   7400   29.60   -152.08300   0.0643  298.  301.  -152.04579
   7600   30.40   -152.08354   0.0699  298.  327.  -152.03693
   7800   31.20   -152.08406   0.0622  298.  291.  -152.04196
block <Epot> / <T> :    -152.10357  298.     drift: -0.33D-03   Tbath : 298.
   8000   32.00   -152.08456   0.0623  298.  291.  -152.04184
   8200   32.80   -152.08503   0.0671  298.  314.  -152.04113
   8400   33.60   -152.08546   0.0656  298.  307.  -152.03875
   8600   34.40   -152.08590   0.0798  298.  373.  -152.03511
block <Epot> / <T> :    -152.10372  298.     drift: -0.13D-03   Tbath : 298.
   8800   35.20   -152.08630   0.0562  298.  263.  -152.04359
   9000   36.00   -152.08668   0.0656  298.  307.  -152.03708
   9200   36.80   -152.08704   0.0673  298.  315.  -152.03861
   9400   37.60   -152.08739   0.0576  298.  269.  -152.04509
   9600   38.40   -152.08774   0.0722  298.  338.  -152.04028
block <Epot> / <T> :    -152.10372  299.     drift: -0.13D-04   Tbath : 298.
   9800   39.20   -152.08809   0.0544  298.  254.  -152.04425
  10000   40.00   -152.08838   0.0708  298.  331.  -152.03540
  10200   40.80   -152.08867   0.0607  298.  284.  -152.04537
  10400   41.60   -152.08897   0.0605  298.  283.  -152.03430
block <Epot> / <T> :    -152.10351  297.     drift:  0.18D-04   Tbath : 298.
  10600   42.40   -152.08925   0.0683  298.  319.  -152.03405
  10800   43.20   -152.08952   0.0572  298.  268.  -152.04561
  11000   44.00   -152.08980   0.0701  298.  328.  -152.03900
  11200   44.80   -152.09006   0.0617  298.  289.  -152.04575
block <Epot> / <T> :    -152.10447  299.     drift: -0.20D-03   Tbath : 298.
  11400   45.60   -152.09031   0.0522  298.  244.  -152.03892
  11600   46.40   -152.09054   0.0671  298.  314.  -152.03783
  11800   47.20   -152.09076   0.0642  298.  300.  -152.03643
  12000   48.00   -152.09098   0.0637  298.  298.  -152.04514
  12200   48.80   -152.09119   0.0677  298.  317.  -152.03761
block <Epot> / <T> :    -152.10375  298.     drift: -0.11D-03   Tbath : 298.
  12400   49.60   -152.09139   0.0558  298.  261.  -152.04352
 GOOD AVERAGES REACHED
 average properties 
 Epot               :  -152.103630586727     
 Epot (accurate SCC):  -152.103535529705     
 Ekin               :  6.369725390902523E-002
 Etot               :  -152.039933332818     
 T                  :   297.984861832439     
 corrections to Re Z-matrix:
   1  C     0.000000      0.0000      0.0000     0    0    0
   2  C    -0.028844      0.0000      0.0000     1    0    0
   3  C    -0.041208     -0.3994      0.0000     2    1    0
   4  C    -0.024910      0.0564      1.1086     1    2    3
   5  C     0.000000     -0.1090      2.7474     1    2    3
   6  C     0.000000      0.1819      1.1295     2    1    3
   7  C     0.000000     -0.4623     -1.4412     3    2    1
   8  C     0.000000     -0.1420      2.9121     4    1    2
   9  N     0.000000     -0.0183      4.9532     5    1    2
  10  N     0.000000     -0.0821     -5.9432     6    2    1
  11  N     0.000000      0.0096      8.4681     7    3    2
  12  N     0.000000     -0.0184     -7.2798     8    4    1
  13  N     0.000000      4.4543      3.5582     1    2    3
  14  N     0.000000     -2.8795      6.7639     2    1    3
  15  N     0.000000      4.2688     -8.4628     3    2    1
  16  N     0.000000     -4.9806     -4.8593     4    1    2
  17  C     0.000000     -0.7021      2.3126     9    5    1
  18  C     0.000000     -0.7762      2.7883    10    6    2
  19  C     0.000000     -0.4932      1.1619    11    7    3
  20  C     0.000000     -0.9140      3.4995    12    8    4
  21  O     0.000000     -0.3687      0.0373    17    9    5
  22  O     0.000000     -0.7245     -0.9643    18   10    6
  23  O     0.000000     -0.4696      5.0119    19   11    7
  24  O     0.000000      0.0944     -1.5910    20   12    8
  25  C     0.000000     -1.1690      8.4568     9    5    1
  26  C     0.000000     -1.4500     -9.7604    10    6    2
  27  C     0.000000     -3.3296     12.5698    11    7    3
  28  C     0.000000     -0.7438    -11.8847    12    8    4
  29  H     0.000000      0.1262    -10.3716    25    9    5
  30  H     0.000000     -0.2198     11.0572    26   10    6
  31  H     0.000000     -0.5484    -16.0721    27   11    7
  32  H     0.000000     -0.6885     13.8782    28   12    8
  33  H     0.000000     -0.5475     -9.6623    25    9    5
  34  H     0.000000      1.2649     10.8999    26   10    6
  35  H     0.000000     -0.5467    -14.9952    27   11    7
  36  H     0.000000      1.2261     13.9730    28   12    8
  37  H     0.000000     -0.2475      4.8554     5    1    2
  38  H     0.000000     -0.1212     -5.2677     6    2    1
  39  H     0.000000      0.3297      9.1431     7    3    2
  40  H     0.000000     -0.4608     -7.3480     8    4    1
  41  H     0.000000     -0.2589      6.5132     1    2    3
  42  H     0.000000     -1.0273     11.6736     2    1    3
  43  H     0.000000     -1.1368    -15.8068     3    2    1
  44  H     0.000000     -0.4819     -7.1755     4    1    2
  45  N     0.000000      0.1508      5.2309     5    1    2
  46  N     0.000000      0.2899     -5.0446     6    2    1
  47  N     0.000000     -0.5346     10.7801     7    3    2
  48  N     0.000000      0.3354     -8.1373     8    4    1
  49  N     0.000000     -4.7273      3.8574     1    2    3
  50  N     0.000000      3.7954      7.1730     2    1    3
  51  N     0.000000     -4.6686    -10.5905     3    2    1
  52  N     0.000000      4.1467     -4.1786     4    1    2
  53  C     0.000000     -1.9606     -7.0580    45    5    1
  54  C     0.000000     -1.8255     -5.1189    46    6    2
  55  C     0.000000     -0.3314      4.3515    47    7    3
  56  C     0.000000     -1.6793      0.2482    48    8    4
  57  O     0.000000      0.3481      3.3388    53   45    5
  58  O     0.000000     -0.7824     -2.1786    54   46    6
  59  O     0.000000     -4.3253     12.7065    55   47    7
  60  O     0.000000      0.3942     -3.7243    56   48    8
  61  C     0.000000     -1.5703      8.0793    45    5    1
  62  C     0.000000     -0.8670    -10.1839    46    6    2
  63  C     0.000000     -2.5970     17.7111    47    7    3
  64  C     0.000000     -2.0069    -16.2926    48    8    4
  65  H     0.000000     -0.6473     -8.7225    61   45    5
  66  H     0.000000     -0.2796     11.8433    62   46    6
  67  H     0.000000     -0.2833    -16.7613    63   47    7
  68  H     0.000000     -0.3494     20.0086    64   48    8
  69  H     0.000000      1.3892     -9.2384    61   45    5
  70  H     0.000000     -0.2773     10.5435    62   46    6
  71  H     0.000000      1.4819    -17.4966    63   47    7
  72  H     0.000000     -0.2738     19.1588    64   48    8
  73  F     0.596518     -5.3429    -13.4740    54   46    6
Be      (a,b,c, in MHz) :     95.313     95.313     85.426
Be - B0 (a,b,c, in MHz) :     -1.271     -0.633      0.108
 corrected structure on <xtb_mdav.coord>
 normal exit of md()
 
speedup  7.78
cpu  time for all   21 h 38 m 56.2 s
wall time for all    2 h 46 m 51.4 s
