 
        ______________________________________
       |                                      |
       |           ==================         |
       |                 x T B                |
       |           ==================         |
       |               S. Grimme              |
       |        Universitaet Bonn, MCTC       |
       |         2015-18, Version 5.0         |
       |      Sat Jan 20 11:00:33 CET 2018    |
       |______________________________________|
 
        This code comes without any warranty
        for non-commercial, academia use only.
        Cite GFN-xTB work as:
        S. Grimme, C. Bannwarth, P. Shushkov
        JCTC, 13 (2017) 1989-2009
        for GFN2:
        C. Bannwarth, S. Ehlert, S. Grimme
        to be published.
        sTDA-xTB:
        S. Grimme  &  C. Bannwarth, JCP 145 (2016) 054103
        in the mass-spec context additionally:
        V. Asgeirsson, C.Bauer, S. Grimme, Chem. Sci. 8 (2017) 4879
 
        with help from
        P. Shushkov, G. Brandenburg, S. Dohm, J. Pisarek,
        F. März, M. Checinski, S. Ehrlich, S. Spicher, 
        P. Pracht, E. Caldeweyher, S. Ehlert, and C. Bannwarth.
 
        usage        :
        xtb <coord_file> [options]
        where <coord_file> is a valid file of TM)
        (*coord, Bohr) or xmol (*xyz, Angstroem)
        format.

        options:
        -chrg <int>   : molecular charge
        -uhf  <int>   : # of unpaired electrons(=2*S)
        -nox          : skip second, extended part in sTDA-xTB
        -pop          : do population analysis
                      : (default for -nox)
        -mowr <real>  : cut MO write above (def.3 Eh)
        -molden       : write formatted molden file
        -parx <file>  : read parameters for sTDA-xTB
                        calc (def:~/.param_stda2.xtb)
        -parv <file>  : read parameters for vTB part in
                        sTDA-xTB (def: ~/.param_stda1.xtb)
        -xtemp <real> : el. temp for xTB (def. 0 K)
        -etemp <real> : el. temp for GFN (def. 300 K)
        -fod          : do a xTB calc. of the FOD
                        and write molden.input file 
                        with appropriate occupations
                        for plotting. Def. T=12500 K
 
        -gfn          : use GFN-xTB
        -grad         : GFN-xTB gradient
        -acc <real>   : GFN-xTB accuracy (def. 1.0)
        -opt [level]  : optimize at GFN-xTB
                      : level=crude,vloose,loose,
                      :       tight,vtight
        -hess         : compute Hessian at GFN-xTB
        -ohess        : optimize and compute Hessian
        -omd          : optimize and do MD
        -siman        : conformational search
        -screen       : opt. loop over ensemble
        -gmd          : annealed MD for GMD procedure
        -modef        : vib mode following
        -gbsa [string1] [string2]
                        use GBSA implicit solvent
                        for solvent [string1] and
                        solvation state [string2]=
                        reference, bar1M (default=1M)
        additional GFN/opt/MD/siman options read from
        $XTBHOME/.xtbrc or $set in coordinate file
 
       spin and charge state information can be on:
       <.CHRG> (charge) and <.UHF> (=nalpha-nbeta)
       -uhf and -chrg override the file info.
       useful machine settings:
       setenv MKL_NUM_THREADS <NCORE_ON_YOUR_MACHINE>
       setenv OMP_STACKSIZE 500m
       limit stacksize unlimited
 
       total energies in Eh, gaps/HL energies in eV
       please read REVISION and HOWTO files carefully
 =============================
  # OMP threads =                     1
 =============================
 
 xtbhome directory:/Applications/xtb/
 
 argument                      1 :-chrg
 argument                      2 :-1
 argument                      3 :-opt
 argument                      4 :tight
 
 number of atoms            :    73
 number of electrons        :   256
 charge                     : -1
 spin                       : 0.0
 first test random number   :  0.0540
 
 
KAB for pair M(3d)-M(3d) :  1.1000
KAB for pair M(4d)-M(4d) :  1.2000
KAB for pair M(5d)-M(5d) :  1.2000
 -----------------------------------------
  G F N (Geometry, Frequency, Non-covalent)
        parametrization, version                     2
 /Applications/xtb/.param_gfn2.xtb
 -----------------------------------------
      method parameters     
 k(s)        :  1.8500
 k(p)        :  2.2500
 k(d)        :  2.0000
 k(f)        :  0.0000
 alphaj      :  1.0000
 kEN (H0ij)  : -2.3620
 D3 a1       :  0.6900
 D3 a2       :  4.0530
 D3 s8       :  2.0000
 D3atm       :  1.0000
 AESdamp     :  5.5000
 AESrad      :  1.9230
 expscalexp  : -0.2500
 
     -------------------------
     ! NO SOLVENT MODEL USED !
     -------------------------
 
 doing EN charges ...
 sum q : -0.1000000D+01
 point charge moment (au)
     X       Y       Z   
   0.0000   0.0000  -0.0413  total (Debye):    0.105
 
            Z      q(EN)   CN      Cart. coordinates
     1  C   4.0    0.20    4.31    -6.01063    -3.06876     0.00000
     2  C   4.0    0.20    4.31     3.06876    -6.01063     0.00000
     3  C   4.0    0.20    4.31     6.01063     3.06876     0.00000
     4  C   4.0    0.20    4.31    -3.06876     6.01063     0.00000
     5  C   4.0    0.20    4.31    -6.74558    -0.18419     0.00000
     6  C   4.0    0.20    4.31     0.18419    -6.74558     0.00000
     7  C   4.0    0.20    4.31     6.74558     0.18419     0.00000
     8  C   4.0    0.20    4.31    -0.18419     6.74558     0.00000
     9  N   5.0   -0.22    3.22    -5.73029     0.72314    -2.35747
    10  N   5.0   -0.22    3.22    -0.72314    -5.73029    -2.35747
    11  N   5.0   -0.22    3.22     5.73029    -0.72314    -2.35747
    12  N   5.0   -0.22    3.22     0.72314     5.73029    -2.35747
    13  N   5.0   -0.22    3.22    -4.68612    -3.38029    -2.35874
    14  N   5.0   -0.22    3.22     3.38029    -4.68612    -2.35874
    15  N   5.0   -0.22    3.22     4.68612     3.38029    -2.35874
    16  N   5.0   -0.22    3.22    -3.38029     4.68612    -2.35874
    17  C   4.0    0.42    3.26    -4.64757    -1.18514    -3.80859
    18  C   4.0    0.42    3.26     1.18514    -4.64757    -3.80859
    19  C   4.0    0.42    3.26     4.64757     1.18514    -3.80859
    20  C   4.0    0.42    3.26    -1.18514     4.64757    -3.80859
    21  O   6.0   -0.36    1.06    -4.00354    -1.02004    -5.99799
    22  O   6.0   -0.36    1.06     1.02004    -4.00354    -5.99799
    23  O   6.0   -0.36    1.06     4.00354     1.02004    -5.99799
    24  O   6.0   -0.36    1.06    -1.02004     4.00354    -5.99799
    25  C   4.0    0.24    4.14    -5.60266     3.32537    -3.15669
    26  C   4.0    0.24    4.14    -3.32537    -5.60266    -3.15669
    27  C   4.0    0.24    4.14     5.60266    -3.32537    -3.15669
    28  C   4.0    0.24    4.14     3.32537     5.60266    -3.15669
    29  H   1.0   -0.06    1.00    -7.29128     4.32734    -2.48161
    30  H   1.0   -0.06    1.00    -4.32734    -7.29128    -2.48161
    31  H   1.0   -0.06    1.00     7.29128    -4.32734    -2.48161
    32  H   1.0   -0.06    1.00     4.32734     7.29128    -2.48161
    33  H   1.0   -0.06    1.01    -5.57167     3.30513    -5.22405
    34  H   1.0   -0.06    1.01    -3.30513    -5.57167    -5.22405
    35  H   1.0   -0.06    1.01     5.57167    -3.30513    -5.22405
    36  H   1.0   -0.06    1.01     3.30513     5.57167    -5.22405
    37  H   1.0   -0.06    1.00    -8.81330     0.09827     0.00000
    38  H   1.0   -0.06    1.00    -0.09827    -8.81330     0.00000
    39  H   1.0   -0.06    1.00     8.81330    -0.09827     0.00000
    40  H   1.0   -0.06    1.00     0.09827     8.81330     0.00000
    41  H   1.0   -0.06    1.00    -7.69154    -4.30568     0.00000
    42  H   1.0   -0.06    1.00     4.30568    -7.69154     0.00000
    43  H   1.0   -0.06    1.00     7.69154     4.30568     0.00000
    44  H   1.0   -0.06    1.00    -4.30568     7.69154     0.00000
    45  N   5.0   -0.22    3.22    -5.73029     0.72314     2.35747
    46  N   5.0   -0.22    3.22    -0.72314    -5.73029     2.35747
    47  N   5.0   -0.22    3.22     5.73029    -0.72314     2.35747
    48  N   5.0   -0.22    3.22     0.72314     5.73029     2.35747
    49  N   5.0   -0.22    3.22    -4.68612    -3.38029     2.35874
    50  N   5.0   -0.22    3.22     3.38029    -4.68612     2.35874
    51  N   5.0   -0.22    3.22     4.68612     3.38029     2.35874
    52  N   5.0   -0.22    3.22    -3.38029     4.68612     2.35874
    53  C   4.0    0.43    3.27    -4.64757    -1.18514     3.80859
    54  C   4.0    0.43    3.27     1.18514    -4.64757     3.80859
    55  C   4.0    0.43    3.27     4.64757     1.18514     3.80859
    56  C   4.0    0.43    3.27    -1.18514     4.64757     3.80859
    57  O   6.0   -0.36    1.06    -4.00354    -1.02004     5.99799
    58  O   6.0   -0.36    1.06     1.02004    -4.00354     5.99799
    59  O   6.0   -0.36    1.06     4.00354     1.02004     5.99799
    60  O   6.0   -0.36    1.06    -1.02004     4.00354     5.99799
    61  C   4.0    0.24    4.14    -5.60266     3.32537     3.15669
    62  C   4.0    0.24    4.14    -3.32537    -5.60266     3.15669
    63  C   4.0    0.24    4.14     5.60266    -3.32537     3.15669
    64  C   4.0    0.24    4.14     3.32537     5.60266     3.15669
    65  H   1.0   -0.06    1.00    -7.29128     4.32734     2.48161
    66  H   1.0   -0.06    1.00    -4.32734    -7.29128     2.48161
    67  H   1.0   -0.06    1.00     7.29128    -4.32734     2.48161
    68  H   1.0   -0.06    1.00     4.32734     7.29128     2.48161
    69  H   1.0   -0.06    1.01    -5.57167     3.30513     5.22405
    70  H   1.0   -0.06    1.01    -3.30513    -5.57167     5.22405
    71  H   1.0   -0.06    1.01     5.57167    -3.30513     5.22405
    72  H   1.0   -0.06    1.01     3.30513     5.57167     5.22405
    73  F   7.0   -0.08    0.04     0.00000     0.00000     1.88973
 
  Z AO/shell   Hii/eV     exponent
  1     Sat Jan 20 17:55:17 CET 2018    EN: 2.200 GAM: 0.531  GM3:-0.4370
     1s    -10.248275    1.266496
  6     Sat Jan 20 17:55:17 CET 2018    EN: 2.550 GAM: 0.417  GM3:-0.0654
     2s    -15.292509    2.030071
     2p    -10.408465    1.801676
  7     Sat Jan 20 17:55:17 CET 2018    EN: 3.040 GAM: 0.444  GM3:-0.1301
     2s    -16.687725    2.226550
     2p    -13.175143    1.981921
  8     Sat Jan 20 17:55:17 CET 2018    EN: 3.440 GAM: 0.468  GM3: 0.0937
     2s    -20.924998    2.442614
     2p    -15.243501    2.233841
  9     Sat Jan 20 11:31:23 CET 2018    EN: 3.980 GAM: 0.596  GM3: 0.1504
     2s    -24.754958    2.510414
     2p    -15.597656    2.417462
 no old-style atom pair restraing (fixing) potential
 
 molecular fragmentation (1/2 indicates fragments):
1111111111111111111111111111111111111111111111111111111111111111111111112
# atoms in fragment 1/2:    72     1
 fragment masses (1/2) :      664.56       19.00
CMA distance (Bohr)    :   1.890
constraining FC (au)   :  0.0500
 
             =======================================
             |                                     |
             |        S C C  calculation           |
             |                                     |
             =======================================
 #proc     :                      1
 Ncao      :                    220
 Nao       :                    220
 Nel       :                    256
 T(el)     :   300.0
 intcut    :    25.0
 scfconv   :  0.100E-05
   qconv   :  0.200E-04
 intneglect:  0.100E-07
 broydamp  :      0.400
 Nshell    :                    122
 iter      E             dE          RMSdq      gap      omega  full diag
   1   -152.8632341 -0.152863E+03  0.982E+00    4.52       0.0  T
   2   -153.3113138 -0.448080E+00  0.540E+00    2.96       1.0  T
   3   -139.2968587  0.140145E+02  0.761E+00    0.17       1.0  T
   4   -153.3172542 -0.140204E+02  0.193E+00    4.45       1.0  T
   5   -153.4172775 -0.100023E+00  0.737E-01    3.61       1.0  T
   6   -153.4219256 -0.464815E-02  0.556E-01    3.40       1.0  T
   7   -153.4254744 -0.354880E-02  0.460E-01    2.84       1.0  T
   8   -153.4276827 -0.220833E-02  0.397E-01    2.40       1.0  T
   9   -153.4300913 -0.240860E-02  0.334E-01    1.97       1.0  T
  10   -153.4325858 -0.249448E-02  0.268E-01    1.57       1.0  T
  11   -153.4348244 -0.223855E-02  0.204E-01    1.24       1.0  T
  12   -153.4355059 -0.681566E-03  0.182E-01    1.13       1.0  T
  13   -153.4370121 -0.150619E-02  0.111E-01    0.23       1.0  T
  14   -153.4370245 -0.124123E-04  0.111E-01    0.23       1.0  T
  15   -153.4384734 -0.144883E-02  0.132E-02    0.39       1.0  T
  16   -153.4384748 -0.142241E-05  0.118E-02    0.41       1.0  T
  17   -153.4384793 -0.454404E-05  0.948E-03    0.42       1.2  T
  18   -153.4384865 -0.713266E-05  0.445E-03    0.41       2.6  T
  19   -153.4384885 -0.202591E-05  0.926E-04    0.40      12.6  T
  20   -153.4384885  0.158451E-07  0.938E-04    0.39      12.5  T
  21   -153.4384886 -0.919001E-07  0.162E-04    0.40      72.2  T
  22   -153.4384886 -0.152116E-08  0.106E-04    0.40     110.2  T
speedup  1.29
cpu  time for SCC    0.67 s
wall time for SCC    0.52 s

          eigenvalues
 #    :         116        117        118        119        120        121        122        123
 occ. :        2.000      2.000      2.000      2.000      2.000      2.000      2.000      2.000
 eps  :        -7.588     -7.588     -7.381     -7.358     -7.358     -7.264     -7.058     -7.058
 #    :         124        125        126        127        128        129        130        131
 occ. :        2.000      2.000      2.000      2.000      1.999      0.001      0.000      0.000
 eps  :        -7.053     -7.025     -2.908     -2.908     -2.857     -2.461     -2.209     -2.209
 #    :         132        133        134        135        136        137        138        139
 occ. :        0.000      0.000      0.000      0.000      0.000      0.000      0.000      0.000
 eps  :        -2.004     -1.760     -1.498     -1.498     -1.356      2.240      2.305      2.305
 
 
 Mulliken/CM5 charges        n(s)   n(p)   n(d)
     1 C   0.06361  0.14238   1.083  2.853  0.000
     2 C   0.06361  0.14238   1.083  2.853  0.000
     3 C   0.06361  0.14238   1.083  2.853  0.000
     4 C   0.06361  0.14238   1.083  2.853  0.000
     5 C   0.06366  0.14251   1.083  2.853  0.000
     6 C   0.06366  0.14251   1.083  2.853  0.000
     7 C   0.06366  0.14251   1.083  2.853  0.000
     8 C   0.06366  0.14251   1.083  2.853  0.000
     9 N  -0.03372 -0.27012   1.131  3.902  0.000
    10 N  -0.03372 -0.27012   1.131  3.902  0.000
    11 N  -0.03372 -0.27012   1.131  3.902  0.000
    12 N  -0.03372 -0.27012   1.131  3.902  0.000
    13 N  -0.03389 -0.27015   1.132  3.902  0.000
    14 N  -0.03389 -0.27015   1.132  3.902  0.000
    15 N  -0.03389 -0.27015   1.132  3.902  0.000
    16 N  -0.03389 -0.27015   1.132  3.902  0.000
    17 C   0.22668  0.39328   1.064  2.710  0.000
    18 C   0.22668  0.39328   1.064  2.710  0.000
    19 C   0.22668  0.39328   1.064  2.710  0.000
    20 C   0.22668  0.39328   1.064  2.710  0.000
    21 O  -0.40582 -0.44583   1.730  4.675  0.000
    22 O  -0.40582 -0.44583   1.730  4.675  0.000
    23 O  -0.40582 -0.44583   1.730  4.675  0.000
    24 O  -0.40582 -0.44583   1.730  4.675  0.000
    25 C   0.03236  0.05642   1.072  2.896  0.000
    26 C   0.03236  0.05642   1.072  2.896  0.000
    27 C   0.03236  0.05642   1.072  2.896  0.000
    28 C   0.03236  0.05642   1.072  2.896  0.000
    29 H   0.03337  0.11023   0.967  0.000  0.000
    30 H   0.03337  0.11023   0.967  0.000  0.000
    31 H   0.03337  0.11023   0.967  0.000  0.000
    32 H   0.03337  0.11023   0.967  0.000  0.000
    33 H   0.07048  0.15768   0.930  0.000  0.000
    34 H   0.07048  0.15768   0.930  0.000  0.000
    35 H   0.07048  0.15768   0.930  0.000  0.000
    36 H   0.07048  0.15768   0.930  0.000  0.000
    37 H   0.02282  0.10188   0.977  0.000  0.000
    38 H   0.02282  0.10188   0.977  0.000  0.000
    39 H   0.02282  0.10188   0.977  0.000  0.000
    40 H   0.02282  0.10188   0.977  0.000  0.000
    41 H   0.02289  0.10196   0.977  0.000  0.000
    42 H   0.02289  0.10196   0.977  0.000  0.000
    43 H   0.02289  0.10196   0.977  0.000  0.000
    44 H   0.02289  0.10196   0.977  0.000  0.000
    45 N  -0.03559 -0.27247   1.127  3.909  0.000
    46 N  -0.03559 -0.27247   1.127  3.909  0.000
    47 N  -0.03559 -0.27247   1.127  3.909  0.000
    48 N  -0.03559 -0.27247   1.127  3.909  0.000
    49 N  -0.03575 -0.27250   1.127  3.908  0.000
    50 N  -0.03575 -0.27250   1.127  3.908  0.000
    51 N  -0.03575 -0.27250   1.127  3.908  0.000
    52 N  -0.03575 -0.27250   1.127  3.908  0.000
    53 C   0.22259  0.38976   1.065  2.713  0.000
    54 C   0.22259  0.38976   1.065  2.713  0.000
    55 C   0.22259  0.38976   1.065  2.713  0.000
    56 C   0.22259  0.38976   1.065  2.713  0.000
    57 O  -0.40125 -0.44144   1.731  4.671  0.000
    58 O  -0.40125 -0.44144   1.731  4.671  0.000
    59 O  -0.40125 -0.44144   1.731  4.671  0.000
    60 O  -0.40125 -0.44144   1.731  4.671  0.000
    61 C   0.02959  0.05373   1.075  2.895  0.000
    62 C   0.02959  0.05373   1.075  2.895  0.000
    63 C   0.02959  0.05373   1.075  2.895  0.000
    64 C   0.02959  0.05373   1.075  2.895  0.000
    65 H   0.02844  0.10530   0.972  0.000  0.000
    66 H   0.02844  0.10530   0.972  0.000  0.000
    67 H   0.02844  0.10530   0.972  0.000  0.000
    68 H   0.02844  0.10530   0.972  0.000  0.000
    69 H   0.07242  0.15967   0.928  0.000  0.000
    70 H   0.07242  0.15967   0.928  0.000  0.000
    71 H   0.07242  0.15967   0.928  0.000  0.000
    72 H   0.07242  0.15967   0.928  0.000  0.000
    73 F  -0.77152 -0.76911   1.997  5.774  0.000
 
 Wiberg/Mayer (AO) data. WBOs > 0.1 written file <wbo>
 largest (>0.05) Wiberg bond orders for each atom
           total WBO             WBO to atom ...
     1  C   3.977    N   49 1.003    N   13 0.992    C    5 0.951    H   41 0.947
     2  C   3.977    N   50 1.003    N   14 0.992    C    6 0.951    H   42 0.947
     3  C   3.977    N   51 1.003    N   15 0.992    C    7 0.951    H   43 0.947
     4  C   3.977    N   52 1.003    N   16 0.992    C    8 0.951    H   44 0.947
     5  C   3.977    N   45 1.003    N    9 0.992    C    1 0.951    H   37 0.947
     6  C   3.977    N   46 1.003    N   10 0.992    C    2 0.951    H   38 0.947
     7  C   3.977    N   47 1.003    N   11 0.992    C    3 0.951    H   39 0.947
     8  C   3.977    N   48 1.003    N   12 0.992    C    4 0.951    H   40 0.947
     9  N   3.421    C   17 1.103    C   25 0.997    C    5 0.992    O   21 0.149
    10  N   3.421    C   18 1.103    C   26 0.997    C    6 0.992    O   22 0.149
    11  N   3.421    C   19 1.103    C   27 0.997    C    7 0.992    O   23 0.149
    12  N   3.421    C   20 1.103    C   28 0.997    C    8 0.992    O   24 0.149
    13  N   3.421    C   17 1.103    C   26 0.997    C    1 0.992    O   21 0.148
    14  N   3.421    C   18 1.103    C   27 0.997    C    2 0.992    O   22 0.148
    15  N   3.421    C   19 1.103    C   28 0.997    C    3 0.992    O   23 0.148
    16  N   3.421    C   20 1.103    C   25 0.997    C    4 0.992    O   24 0.148
    17  C   3.964    O   21 1.692    N    9 1.103    N   13 1.103
    18  C   3.964    O   22 1.692    N   10 1.103    N   14 1.103
    19  C   3.964    O   23 1.692    N   11 1.103    N   15 1.103
    20  C   3.964    O   24 1.692    N   12 1.103    N   16 1.103
    21  O   2.046    C   17 1.692    N    9 0.149    N   13 0.148
    22  O   2.046    C   18 1.692    N   10 0.149    N   14 0.148
    23  O   2.046    C   19 1.692    N   11 0.149    N   15 0.148
    24  O   2.046    C   20 1.692    N   12 0.149    N   16 0.148
    25  C   3.971    N   16 0.997    N    9 0.997    H   29 0.964    H   33 0.958
    26  C   3.971    N   13 0.997    N   10 0.997    H   30 0.964    H   34 0.958
    27  C   3.971    N   14 0.997    N   11 0.997    H   31 0.964    H   35 0.958
    28  C   3.971    N   15 0.997    N   12 0.997    H   32 0.964    H   36 0.958
    29  H   0.998    C   25 0.964
    30  H   0.998    C   26 0.964
    31  H   0.998    C   27 0.964
    32  H   0.998    C   28 0.964
    33  H   0.994    C   25 0.958
    34  H   0.994    C   26 0.958
    35  H   0.994    C   27 0.958
    36  H   0.994    C   28 0.958
    37  H   0.999    C    5 0.947
    38  H   0.999    C    6 0.947
    39  H   0.999    C    7 0.947
    40  H   0.999    C    8 0.947
    41  H   0.999    C    1 0.947
    42  H   0.999    C    2 0.947
    43  H   0.999    C    3 0.947
    44  H   0.999    C    4 0.947
    45  N   3.398    C   53 1.076    C    5 1.003    C   61 0.997    O   57 0.138
    46  N   3.398    C   54 1.076    C    6 1.003    C   62 0.997    O   58 0.138
    47  N   3.398    C   55 1.076    C    7 1.003    C   63 0.997    O   59 0.138
    48  N   3.398    C   56 1.076    C    8 1.003    C   64 0.997    O   60 0.138
    49  N   3.398    C   53 1.076    C    1 1.003    C   62 0.997    O   57 0.137
    50  N   3.398    C   54 1.076    C    2 1.003    C   63 0.997    O   58 0.137
    51  N   3.398    C   55 1.076    C    3 1.003    C   64 0.997    O   59 0.137
    52  N   3.398    C   56 1.076    C    4 1.003    C   61 0.997    O   60 0.137
    53  C   3.965    O   57 1.691    N   45 1.076    N   49 1.076    F   73 0.059
    54  C   3.965    O   58 1.691    N   46 1.076    N   50 1.076    F   73 0.059
    55  C   3.965    O   59 1.691    N   47 1.076    N   51 1.076    F   73 0.059
    56  C   3.965    O   60 1.691    N   48 1.076    N   52 1.076    F   73 0.059
    57  O   2.052    C   53 1.691    N   45 0.138    N   49 0.137
    58  O   2.052    C   54 1.691    N   46 0.138    N   50 0.137
    59  O   2.052    C   55 1.691    N   47 0.138    N   51 0.137
    60  O   2.052    C   56 1.691    N   48 0.138    N   52 0.137
    61  C   3.971    N   52 0.997    N   45 0.997    H   65 0.964    H   69 0.958
    62  C   3.971    N   49 0.997    N   46 0.997    H   66 0.964    H   70 0.958
    63  C   3.971    N   50 0.997    N   47 0.997    H   67 0.964    H   71 0.958
    64  C   3.971    N   51 0.997    N   48 0.997    H   68 0.964    H   72 0.958
    65  H   0.999    C   61 0.964
    66  H   0.999    C   62 0.964
    67  H   0.999    C   63 0.964
    68  H   0.999    C   64 0.964
    69  H   0.994    C   61 0.958
    70  H   0.994    C   62 0.958
    71  H   0.994    C   63 0.958
    72  H   0.994    C   64 0.958
    73  F   0.437    C   53 0.059    C   55 0.059    C   56 0.059    C   54 0.059
 
molecular dipole:
                 x           y           z       tot (Debye)
 q only:        0.000       0.000      -1.489
   full:        0.000       0.000      -1.478       3.757
molecular quadrupole (traceless):
                xx          xy          yy          xz          yz          zz
 q only:       52.503       0.000      52.503      -0.000      -0.000    -105.007
  q+dip:       62.066       0.000      62.066      -0.000      -0.000    -124.133
   full:       63.063       0.000      63.063      -0.000      -0.000    -126.125
 SCC converged in                     22  cycles
 
SCC energy    :    -153.4384886
rep           :       1.4203293
ES            :       0.2232893
AES           :      -0.0048817
disp          :      -0.1067954
XB            :       0.0000000
fix           :       0.0000000
total E       :    -152.1249547
atomizationE  :      19.9704099    12531.62
(atE without considerung molecular charge,
 total energy contains solvation terms)
H-L gap (eV)  :          0.3966
 
             =======================================
             |                                     |
             |    Approximate Normal Coordinate    |
             |   Rational Function Optimization    |
             |                                     |
             =======================================
Ref. for RF algo: F.Eckert, P.Pulay, H.-J.Werner
                  J.Comput.Chem. 18 (1997) 1473.
ANC idea implemented by S. Grimme in the 2000ers (unpublished)
restraining potential by S. Ehrlich.
dumping coords to <xtbopt.coord> and <xtbopt.log
 optlevel                         1
 Maxcycle                       365
 Maxmicro                        20
 Econv         1.000000000000000E-006
 Gconv         8.000000000000000E-004
 Maxdispl       1.00000000000000     
 Hlow          4.000000000000000E-003
 S6             20.0000000000000     
 Nvar                        213

generating ANC from model Hessian ...
 Shifting diagonal of input Hessian by   2.621325223394078E-003
 Lowest  eigenvalues of input Hessian
   -0.000000   -0.000000   -0.000000   -0.000000   -0.000000    0.000000
    0.004000    0.005792    0.005899    0.007223    0.007701    0.008837
    0.008837    0.012461    0.012461    0.013920    0.016195    0.016580
 Highest eigenvalues
    2.451047    2.453487    2.455731    2.458670    2.458670    2.463765
 
cpu  time for ANC gen    0.13 s
wall time for ANC gen    0.11 s
................................................................................
.............................. CYCLE    1 ......................................
................................................................................
  q data taken from xtbrestart
  CAMM data taken from xtbrestart
   1   -153.4384886 -0.153438E+03  0.151E-05    0.40       0.0  T
   2   -153.4384886 -0.844125E-11  0.103E-05    0.40    1133.6  T
   3   -153.4384886 -0.861178E-11  0.418E-06    0.40    2801.5  T
speedup  1.31
cpu  time for SCC    0.19 s
wall time for SCC    0.14 s
speedup  1.26
cpu  time for grad    0.15 s
wall time for grad    0.12 s
 E :   -152.12495466  G :  0.092742    pred/act E change:  0.000D+00 -0.118D-08
Maxdispl :   0.1969   ||displ|| :   0.4198   Lambda : -0.216D-01
Largest |displ|/coords:  0.1969 (  49)  0.1901 (  73)  0.1781 (  11)
................................................................................
.............................. CYCLE    2 ......................................
................................................................................
   1   -153.5018432 -0.153502E+03  0.176E-01    0.70       0.0  T
   2   -153.5020552 -0.211984E-03  0.101E-01    0.76       1.0  T
   3   -153.5020437  0.114649E-04  0.509E-02    0.73       1.0  T
   4   -153.5021083 -0.646439E-04  0.533E-03    0.75       2.2  T
   5   -153.5021095 -0.111340E-05  0.262E-03    0.75       4.5  T
   6   -153.5021096 -0.104863E-06  0.121E-03    0.75       9.6  T
   7   -153.5021096 -0.207222E-07  0.501E-04    0.75      23.4  T
   8   -153.5021096 -0.369116E-08  0.171E-04    0.75      68.5  T
speedup  1.66
cpu  time for SCC    0.28 s
wall time for SCC    0.17 s
speedup  1.24
cpu  time for grad    0.15 s
wall time for grad    0.12 s
 E :   -152.13945372  G :  0.030964    pred/act E change:  0.000D+00 -0.145D-01
Maxdispl :   0.2587   ||displ|| :   0.4259   Lambda : -0.655D-02
Largest |displ|/coords:  0.2587 (  11)  0.1781 (   1)  0.1618 (  49)
................................................................................
.............................. CYCLE    3 ......................................
................................................................................
   1   -153.5378846 -0.153538E+03  0.160E-01    0.78       0.0  T
   2   -153.5387234 -0.838744E-03  0.886E-02    1.15       1.0  T
   3   -153.5390140 -0.290646E-03  0.466E-02    1.02       1.0  T
   4   -153.5390209 -0.683179E-05  0.972E-03    1.04       1.2  T
   5   -153.5390242 -0.332807E-05  0.342E-03    1.05       3.4  T
   6   -153.5390245 -0.344411E-06  0.170E-03    1.05       6.9  T
   7   -153.5390246 -0.819318E-07  0.818E-04    1.05      14.3  T
   8   -153.5390246 -0.343860E-08  0.342E-04    1.05      34.2  T
speedup  0.93
cpu  time for SCC    0.30 s
wall time for SCC    0.32 s
speedup  1.31
cpu  time for grad    0.13 s
wall time for grad    0.10 s
 E :   -152.14354164  G :  0.016549    pred/act E change: -0.127D-01 -0.409D-02
Maxdispl :   0.1678   ||displ|| :   0.2249   Lambda : -0.114D-02
Largest |displ|/coords:  0.1678 (  11)  0.0862 (  29)  0.0819 (  10)
................................................................................
.............................. CYCLE    4 ......................................
................................................................................
   1   -153.5436349 -0.153544E+03  0.756E-02    1.05       0.0  T
   2   -153.5437763 -0.141406E-03  0.403E-02    1.19       1.0  T
   3   -153.5438040 -0.276771E-04  0.227E-02    1.15       1.0  T
   4   -153.5438095 -0.549340E-05  0.436E-03    1.17       2.7  T
   5   -153.5438099 -0.420319E-06  0.155E-03    1.17       7.5  T
   6   -153.5438100 -0.636886E-07  0.759E-04    1.17      15.4  T
   7   -153.5438100 -0.159151E-07  0.403E-04    1.17      29.0  T
   8   -153.5438100 -0.181819E-08  0.124E-04    1.17      94.1  T
speedup  1.06
cpu  time for SCC    0.32 s
wall time for SCC    0.30 s
speedup  1.18
cpu  time for grad    0.15 s
wall time for grad    0.12 s
 E :   -152.14423915  G :  0.007858    pred/act E change: -0.387D-02 -0.698D-03
Maxdispl :   0.0835   ||displ|| :   0.1182   Lambda : -0.210D-03
Largest |displ|/coords:  0.0835 (  11)  0.0593 (  10)  0.0470 (   1)
................................................................................
.............................. CYCLE    5 ......................................
................................................................................
   1   -153.5428243 -0.153543E+03  0.399E-02    1.13       0.0  T
   2   -153.5428931 -0.688588E-04  0.212E-02    1.22       1.0  T
   3   -153.5429076 -0.144348E-04  0.111E-02    1.20       1.1  T
   4   -153.5429080 -0.411323E-06  0.231E-03    1.21       5.1  T
   5   -153.5429081 -0.950048E-07  0.606E-04    1.21      19.3  T
   6   -153.5429081 -0.134044E-07  0.287E-04    1.21      40.8  T
   7   -153.5429081 -0.294784E-08  0.136E-04    1.21      86.0  T
speedup  1.54
cpu  time for SCC    0.28 s
wall time for SCC    0.18 s
speedup  1.00
cpu  time for grad    0.14 s
wall time for grad    0.14 s
 E :   -152.14434729  G :  0.003922    pred/act E change: -0.600D-03 -0.108D-03
Maxdispl :   0.1193   ||displ|| :   0.1366   Lambda : -0.116D-03
Largest |displ|/coords:  0.1193 (   1)  0.0464 (  11)  0.0376 (  10)
................................................................................
.............................. CYCLE    6 ......................................
................................................................................
   1   -153.5407706 -0.153541E+03  0.316E-02    1.25       0.0  T
   2   -153.5408134 -0.428224E-04  0.165E-02    1.18       1.0  T
   3   -153.5408235 -0.100900E-04  0.886E-03    1.20       1.3  T
   4   -153.5408238 -0.298100E-06  0.136E-03    1.19       8.6  T
   5   -153.5408239 -0.110007E-06  0.481E-04    1.19      24.3  T
   6   -153.5408239 -0.953330E-08  0.224E-04    1.19      52.2  T
   7   -153.5408239 -0.625448E-09  0.114E-04    1.19     102.3  T
   8   -153.5408239 -0.129404E-09  0.465E-05    1.19     251.7  T
speedup  1.46
cpu  time for SCC    0.27 s
wall time for SCC    0.19 s
speedup  1.19
cpu  time for grad    0.17 s
wall time for grad    0.14 s
 E :   -152.14434410  G :  0.003685    pred/act E change: -0.106D-03  0.318D-05
Maxdispl :   0.0579   ||displ|| :   0.0661   Lambda : -0.753D-04
Largest |displ|/coords:  0.0579 (   1)  0.0224 (  11)  0.0145 (  10)
................................................................................
.............................. CYCLE    7 ......................................
................................................................................
   1   -153.5416444 -0.153542E+03  0.153E-02    1.17       0.0  T
   2   -153.5416563 -0.118884E-04  0.807E-03    1.21       1.5  T
   3   -153.5416594 -0.316930E-05  0.379E-03    1.20       3.1  T
   4   -153.5416595 -0.296892E-07  0.758E-04    1.20      15.4  T
   5   -153.5416595 -0.184099E-07  0.312E-04    1.20      37.6  T
   6   -153.5416595 -0.471746E-08  0.969E-05    1.20     120.7  T
   7   -153.5416595 -0.160043E-09  0.519E-05    1.20     225.6  T
speedup  1.37
cpu  time for SCC    0.26 s
wall time for SCC    0.19 s
speedup  1.27
cpu  time for grad    0.15 s
wall time for grad    0.12 s
 E :   -152.14438457  G :  0.000999    pred/act E change: -0.590D-04 -0.405D-04
Maxdispl :   0.0036   ||displ|| :   0.0071   Lambda : -0.261D-05
Largest |displ|/coords:  0.0036 (  29)  0.0028 (  20)  0.0024 (  22)
................................................................................
.............................. CYCLE    8 ......................................
................................................................................
   1   -153.5417377 -0.153542E+03  0.343E-03    1.19       0.0  T
   2   -153.5417379 -0.185511E-06  0.199E-03    1.20       5.9  T
   3   -153.5417380 -0.271971E-07  0.111E-03    1.20      10.6  T
   4   -153.5417380 -0.229934E-07  0.178E-04    1.20      65.7  T
   5   -153.5417380 -0.683912E-09  0.901E-05    1.20     130.0  T
speedup  1.72
cpu  time for SCC    0.22 s
wall time for SCC    0.13 s
speedup  1.22
cpu  time for grad    0.16 s
wall time for grad    0.13 s
 E :   -152.14438642  G :  0.000481    pred/act E change: -0.378D-04 -0.185D-05
Maxdispl :   0.0040   ||displ|| :   0.0078   Lambda : -0.119D-05
Largest |displ|/coords:  0.0040 (  20)  0.0029 (  11)  0.0027 (  22)
................................................................................
.............................. CYCLE    9 ......................................
................................................................................
   1   -153.5418016 -0.153542E+03  0.313E-03    1.20       0.0  T
   2   -153.5418016 -0.609799E-07  0.184E-03    1.20       6.4  T
   3   -153.5418016  0.161704E-07  0.817E-04    1.20      14.3  T
   4   -153.5418016 -0.313559E-07  0.153E-04    1.20      76.4  T
   5   -153.5418016 -0.496243E-09  0.753E-05    1.20     155.5  T
speedup  1.32
cpu  time for SCC    0.25 s
wall time for SCC    0.19 s
speedup  1.26
cpu  time for grad    0.14 s
wall time for grad    0.11 s
 E :   -152.14438709  G :  0.000181    pred/act E change: -0.130D-05 -0.667D-06
Maxdispl :   0.0014   ||displ|| :   0.0024   Lambda : -0.887D-07
Largest |displ|/coords:  0.0014 (  20)  0.0010 (   7)  0.0008 (  22)
ancopt converged in          9 cycles
total energy gain (kcal):    -12.1940
================
 final structure:
================
    73
       -152.14438709
C          -3.14391719987203   -1.59965541627160    0.00871101749033
C           1.59965666676382   -3.14391249943135    0.00871171732916
C           3.14391786897052    1.59965956858330    0.00871053191567
C          -1.59965834898899    3.14392248762956    0.00870993783313
C          -3.52592169203721   -0.10137737424363    0.00870362198897
C           0.10137944368705   -3.52591915151118    0.00870416416317
C           3.52592574221825    0.10138205230490    0.00870290093197
C          -0.10137993481348    3.52592819308081    0.00870246014253
N          -2.97508710997487    0.38084562493233   -1.23226113957422
N          -0.38084359775395   -2.97508628833588   -1.23226191381950
N           2.97508810456720   -0.38084217293519   -1.23226066836518
N           0.38084404606281    2.97508935280369   -1.23226007463858
N          -2.42949289725706   -1.75927134990728   -1.23229843705112
N           1.75927305961722   -2.42949119187027   -1.23229897173594
N           2.42949246906192    1.75927449723843   -1.23229759293341
N          -1.75927291324641    2.42949467534430   -1.23229725758074
C          -2.42529653971461   -0.61857033663553   -1.99762511725577
C           0.61857178434672   -2.42529546226753   -1.99762574971954
C           2.42529691440578    0.61857297696203   -1.99762447477424
C          -0.61857166767452    2.42529850011747   -1.99762402366299
O          -2.11001401147370   -0.53818416585078   -3.15329485190275
O           0.53818639832088   -2.11001326396390   -3.15329579129446
O           2.11001361049339    0.53818761242041   -3.15329387702873
O          -0.53818559797982    2.11001495301817   -3.15329312573101
C          -2.94311150369675    1.74695677970199   -1.66321393136065
C          -1.74695505187638   -2.94311012502084   -1.66321440158238
C           2.94311183479225   -1.74695360745117   -1.66321422176039
C           1.74695528210675    2.94311322397254   -1.66321373974100
H          -3.83620817659282    2.27699326595831   -1.31080880006001
H          -2.27699141816020   -3.83620623162847   -1.31080785823138
H           3.83620808467913   -2.27699014231392   -1.31080820306431
H           2.27699212738830    3.83620990357113   -1.31080910491901
H          -2.88996005109981    1.71541095835690   -2.76026641801574
H          -1.71540970653845   -2.88995988291942   -2.76026693376726
H           2.88996151168957   -1.71540747200026   -2.76026674420337
H           1.71540871727013    2.88996168574456   -2.76026622213241
H          -4.62241709885987    0.06747507205914    0.00337973165787
H          -0.06747065988915   -4.62241488146730    0.00338004990081
H           4.62242125935972   -0.06746903688035    0.00337519569447
H           0.06747348719864    4.62242333119954    0.00337551424320
H          -4.02572268766760   -2.27287950827431    0.00338114196018
H           2.27288131522807   -4.02571761820333    0.00338500603189
H           4.02572144742032    2.27288618824559    0.00338180249143
H          -2.27288433017470    4.02572642865280    0.00337859703962
N          -2.96859772807637    0.38214051342405    1.22898352234088
N          -0.38213914081412   -2.96859741558192    1.22898436072090
N           2.96860892638233   -0.38213489471670    1.22898670967948
N           0.38213643284679    2.96860851212015    1.22898566279724
N          -2.42322341961694   -1.75728952930881    1.22907172457834
N           1.75728892963080   -2.42321348405428    1.22906931176037
N           2.42322071447518    1.75729106979630    1.22907010438185
N          -1.75729149845331    2.42322995239431    1.22907231787842
C          -2.32134946733467   -0.59205002703063    1.96997628896841
C           0.59204638524690   -2.32133265037879    1.96997149338839
C           2.32136707928710    0.59205547128584    1.96998146056101
C          -0.59205884599097    2.32138290857880    1.96998595819900
O          -2.03611728850264   -0.51930247531198    3.13186285319919
O           0.51930212740082   -2.03610388030682    3.13186005572734
O           2.03612963870497    0.51931012430330    3.13186583783507
O          -0.51931025023790    2.03614200978494    3.13186835232541
C          -2.93573114791473    1.74258265768211    1.66075804269301
C          -1.74258104881647   -2.93573064480428    1.66075849551087
C           2.93573281671673   -1.74257828035404    1.66075833767185
C           1.74258002077318    2.93573323284361    1.66075788224781
H          -3.83488798728204    2.27622109206716    1.32835500160367
H          -2.27622104688767   -3.83488736761808    1.32835757550700
H           3.83488689407977   -2.27622224526962    1.32835665484291
H           2.27622205971160    3.83488763302338    1.32835405414686
H          -2.86119019339547    1.69831845953707    2.75563354635612
H          -1.69831557337258   -2.86118629539880    2.75563371941247
H           2.86118858808004   -1.69831512352622    2.75563366082113
H           1.69831806639593    2.86119245795463    2.75563347979123
F          -0.00002302334230   -0.00025193364909    1.08378979014551
 
 Bond Distances (Angstroems)
 ---------------------------
C1-C5=1.5462         C1-N13=1.4408        C1-H41=1.1094        C1-N49=1.4260        C2-C6=1.5462         C2-N14=1.4408        
C2-H42=1.1094        C2-N50=1.4260        C3-C7=1.5462         C3-N15=1.4408        C3-H43=1.1094        C3-N51=1.4260        
C4-C8=1.5462         C4-N16=1.4408        C4-H44=1.1094        C4-N52=1.4260        C5-C1=1.5462         C5-N9=1.4408         
C5-H37=1.1094        C5-N45=1.4260        C6-C2=1.5462         C6-N10=1.4408        C6-H38=1.1094        C6-N46=1.4260        
C7-C3=1.5462         C7-N11=1.4408        C7-H39=1.1094        C7-N47=1.4260        C8-C4=1.5462         C8-N12=1.4408        
C8-H40=1.1094        C8-N48=1.4260        N9-C5=1.4408         N9-C17=1.3736        N9-C25=1.4328        N10-C6=1.4408        
N10-C18=1.3736       N10-C26=1.4328       N11-C7=1.4408        N11-C19=1.3736       N11-C27=1.4328       N12-C8=1.4408        
N12-C20=1.3736       N12-C28=1.4328       N13-C1=1.4408        N13-C17=1.3737       N13-C26=1.4328       N14-C2=1.4408        
N14-C18=1.3737       N14-C27=1.4328       N15-C3=1.4408        N15-C19=1.3737       N15-C28=1.4328       N16-C4=1.4408        
N16-C20=1.3737       N16-C25=1.4328       C17-N9=1.3736        C17-N13=1.3737       C17-O21=1.2006       C18-N10=1.3736       
C18-N14=1.3737       C18-O22=1.2006       C19-N11=1.3736       C19-N15=1.3737       C19-O23=1.2006       C20-N12=1.3736       
C20-N16=1.3737       C20-O24=1.2006       O21-C17=1.2006       O22-C18=1.2006       O23-C19=1.2006       O24-C20=1.2006       
C25-N9=1.4328        C25-N16=1.4328       C25-H29=1.0967       C25-H33=1.0988       C26-N10=1.4328       C26-N13=1.4328       
C26-H30=1.0967       C26-H34=1.0988       C27-N11=1.4328       C27-N14=1.4328       C27-H31=1.0967       C27-H35=1.0988       
C28-N12=1.4328       C28-N15=1.4328       C28-H32=1.0967       C28-H36=1.0988       H29-C25=1.0967       H30-C26=1.0967       
H31-C27=1.0967       H32-C28=1.0967       H33-C25=1.0988       H34-C26=1.0988       H35-C27=1.0988       H36-C28=1.0988       
H37-C5=1.1094        H38-C6=1.1094        H39-C7=1.1094        H40-C8=1.1094        H41-C1=1.1094        H42-C2=1.1094        
H43-C3=1.1094        H44-C4=1.1094        N45-C5=1.4260        N45-C53=1.3846       N45-C61=1.4277       N46-C6=1.4260        
N46-C54=1.3846       N46-C62=1.4277       N47-C7=1.4260        N47-C55=1.3846       N47-C63=1.4277       N48-C8=1.4260        
N48-C56=1.3846       N48-C64=1.4277       N49-C1=1.4260        N49-C53=1.3846       N49-C62=1.4277       N50-C2=1.4260        
N50-C54=1.3846       N50-C63=1.4277       N51-C3=1.4260        N51-C55=1.3846       N51-C64=1.4277       N52-C4=1.4260        
N52-C56=1.3846       N52-C61=1.4277       C53-N45=1.3846       C53-N49=1.3846       C53-O57=1.1986       C54-N46=1.3846       
C54-N50=1.3846       C54-O58=1.1986       C55-N47=1.3846       C55-N51=1.3846       C55-O59=1.1986       C56-N48=1.3846       
C56-N52=1.3846       C56-O60=1.1986       O57-C53=1.1986       O58-C54=1.1986       O59-C55=1.1986       O60-C56=1.1986       
C61-N45=1.4277       C61-N52=1.4277       C61-H65=1.0972       C61-H69=1.0983       C62-N46=1.4277       C62-N49=1.4277       
C62-H66=1.0972       C62-H70=1.0983       C63-N47=1.4277       C63-N50=1.4277       C63-H67=1.0972       C63-H71=1.0983       
C64-N48=1.4277       C64-N51=1.4277       C64-H68=1.0972       C64-H72=1.0983       H65-C61=1.0972       H66-C62=1.0972       
H67-C63=1.0972       H68-C64=1.0972       H69-C61=1.0983       H70-C62=1.0983       H71-C63=1.0983       H72-C64=1.0983       
 C  H  Rav=1.1016 sigma=0.0056  Rmin=1.0967  Rmax=1.1094    24
 C  C  Rav=1.5462 sigma=0.0000  Rmin=1.5462  Rmax=1.5462     4
 N  C  Rav=1.4143 sigma=0.0255  Rmin=1.3736  Rmax=1.4408    48
 O  C  Rav=1.1996 sigma=0.0010  Rmin=1.1986  Rmax=1.2006     8
 
 selected bond angles (degree)
 --------------------
N13-C1-C5=103.29               H41-C1-C5=113.06               H41-C1-N13=108.83              N49-C1-C5=103.41               
N49-C1-N13=118.31              N49-C1-H41=109.80              N14-C2-C6=103.29               H42-C2-C6=113.06               
H42-C2-N14=108.83              N50-C2-C6=103.41               N50-C2-N14=118.31              N50-C2-H42=109.80              
N15-C3-C7=103.29               H43-C3-C7=113.06               H43-C3-N15=108.83              N51-C3-C7=103.41               
N51-C3-N15=118.31              N51-C3-H43=109.80              N16-C4-C8=103.29               H44-C4-C8=113.06               
H44-C4-N16=108.83              N52-C4-C8=103.41               N52-C4-N16=118.31              N52-C4-H44=109.80              
N9-C5-C1=103.29                H37-C5-C1=113.06               H37-C5-N9=108.83               N45-C5-C1=103.41               
N45-C5-N9=118.30               N45-C5-H37=109.80              N10-C6-C2=103.29               H38-C6-C2=113.06               
H38-C6-N10=108.83              N46-C6-C2=103.41               N46-C6-N10=118.30              N46-C6-H38=109.80              
N11-C7-C3=103.29               H39-C7-C3=113.06               H39-C7-N11=108.83              N47-C7-C3=103.41               
N47-C7-N11=118.30              N47-C7-H39=109.80              N12-C8-C4=103.29               H40-C8-C4=113.06               
H40-C8-N12=108.83              N48-C8-C4=103.41               N48-C8-N12=118.30              N48-C8-H40=109.80              
C17-N9-C5=112.92               C25-N9-C5=125.92               C25-N9-C17=121.14              C18-N10-C6=112.92              
C26-N10-C6=125.92              C26-N10-C18=121.14             
 
 selected dihedral angles (degree)
 ---------------------------------
N9-C5-C1-N13=  0.00           N9-C5-C1-H41=242.55           N9-C5-C1-N49=123.87           H37-C5-C1-N13=117.45          
H37-C5-C1-H41=  0.00          H37-C5-C1-N49=241.32          N45-C5-C1-N13=236.14          N45-C5-C1-H41=118.69          
N45-C5-C1-N49=  0.00          N10-C6-C2-N14=  0.00          N10-C6-C2-H42=242.55          N10-C6-C2-N50=123.87          
H38-C6-C2-N14=117.45          H38-C6-C2-H42=  0.00          H38-C6-C2-N50=241.32          N46-C6-C2-N14=236.14          
N46-C6-C2-H42=118.69          N46-C6-C2-N50=  0.00          N11-C7-C3-N15=  0.00          N11-C7-C3-H43=242.55          
N11-C7-C3-N51=123.87          H39-C7-C3-N15=117.45          H39-C7-C3-H43=  0.00          H39-C7-C3-N51=241.32          
N47-C7-C3-N15=236.14          N47-C7-C3-H43=118.69          N47-C7-C3-N51=  0.00          N12-C8-C4-N16=  0.00          
N12-C8-C4-H44=242.55          N12-C8-C4-N52=123.87          H40-C8-C4-N16=117.45          H40-C8-C4-H44=  0.00          
H40-C8-C4-N52=241.32          N48-C8-C4-N16=236.14          N48-C8-C4-H44=118.69          N48-C8-C4-N52=  0.00          
C17-N9-C5-C1=  4.69           C17-N9-C5-H37=244.31          C17-N9-C5-N45=118.14          C25-N9-C5-C1=186.21           
C25-N9-C5-H37= 65.83          C25-N9-C5-N45=299.66          C18-N10-C6-C2=  4.69          C18-N10-C6-H38=244.31         
C18-N10-C6-N46=118.14         C26-N10-C6-C2=186.21          C26-N10-C6-H38= 65.83         C26-N10-C6-N46=299.66         
 
 CMA Distance (Angstroems)
 ---------------------------
R(CMA):  1.0872
 
             =======================================
             |                                     |
             |        S C C  calculation           |
             |                                     |
             =======================================
 #proc     :                      1
 Ncao      :                    220
 Nao       :                    220
 Nel       :                    256
 T(el)     :   300.0
 intcut    :    25.0
 scfconv   :  0.100E-05
   qconv   :  0.200E-04
 intneglect:  0.100E-07
 broydamp  :      0.400
 Nshell    :                    122
 iter      E             dE          RMSdq      gap      omega  full diag
   1   -153.5418016 -0.153542E+03  0.296E-05    1.20       0.0  T
   2   -153.5418016 -0.271996E-10  0.177E-05    1.20     662.0  T
   3   -153.5418016 -0.616751E-11  0.116E-05    1.20    1007.6  T
speedup  1.41
cpu  time for SCC    0.18 s
wall time for SCC    0.12 s

          eigenvalues
 #    :         116        117        118        119        120        121        122        123
 occ. :        2.000      2.000      2.000      2.000      2.000      2.000      2.000      2.000
 eps  :        -7.539     -7.539     -7.302     -7.279     -7.279     -7.171     -7.066     -7.033
 #    :         124        125        126        127        128        129        130        131
 occ. :        2.000      2.000      2.000      2.000      2.000      0.000      0.000      0.000
 eps  :        -7.033     -6.949     -3.491     -3.491     -3.409     -2.209     -1.953     -1.953
 #    :         132        133        134        135        136        137        138        139
 occ. :        0.000      0.000      0.000      0.000      0.000      0.000      0.000      0.000
 eps  :        -1.756     -1.578     -1.303     -1.303     -1.235      2.805      2.868      2.891
 
 
 Mulliken/CM5 charges        n(s)   n(p)   n(d)
     1 C   0.06422  0.14672   1.078  2.858  0.000
     2 C   0.06422  0.14672   1.078  2.858  0.000
     3 C   0.06422  0.14672   1.078  2.858  0.000
     4 C   0.06423  0.14672   1.078  2.858  0.000
     5 C   0.06423  0.14672   1.078  2.858  0.000
     6 C   0.06423  0.14672   1.078  2.858  0.000
     7 C   0.06423  0.14673   1.078  2.858  0.000
     8 C   0.06423  0.14673   1.078  2.858  0.000
     9 N  -0.03504 -0.27700   1.127  3.908  0.000
    10 N  -0.03504 -0.27700   1.127  3.908  0.000
    11 N  -0.03504 -0.27700   1.127  3.908  0.000
    12 N  -0.03504 -0.27700   1.127  3.908  0.000
    13 N  -0.03506 -0.27701   1.127  3.908  0.000
    14 N  -0.03506 -0.27701   1.127  3.908  0.000
    15 N  -0.03506 -0.27701   1.127  3.908  0.000
    16 N  -0.03506 -0.27701   1.127  3.908  0.000
    17 C   0.22835  0.40203   1.054  2.717  0.000
    18 C   0.22835  0.40203   1.054  2.717  0.000
    19 C   0.22835  0.40203   1.054  2.717  0.000
    20 C   0.22835  0.40203   1.054  2.717  0.000
    21 O  -0.41549 -0.45727   1.724  4.692  0.000
    22 O  -0.41549 -0.45727   1.724  4.692  0.000
    23 O  -0.41549 -0.45726   1.724  4.692  0.000
    24 O  -0.41549 -0.45726   1.724  4.692  0.000
    25 C   0.02981  0.05703   1.072  2.899  0.000
    26 C   0.02981  0.05703   1.072  2.899  0.000
    27 C   0.02981  0.05703   1.072  2.899  0.000
    28 C   0.02981  0.05703   1.072  2.899  0.000
    29 H   0.03318  0.11008   0.967  0.000  0.000
    30 H   0.03318  0.11009   0.967  0.000  0.000
    31 H   0.03318  0.11009   0.967  0.000  0.000
    32 H   0.03318  0.11008   0.967  0.000  0.000
    33 H   0.07074  0.15981   0.929  0.000  0.000
    34 H   0.07074  0.15981   0.929  0.000  0.000
    35 H   0.07074  0.15981   0.929  0.000  0.000
    36 H   0.07074  0.15981   0.929  0.000  0.000
    37 H   0.02126  0.09981   0.979  0.000  0.000
    38 H   0.02126  0.09981   0.979  0.000  0.000
    39 H   0.02126  0.09981   0.979  0.000  0.000
    40 H   0.02126  0.09981   0.979  0.000  0.000
    41 H   0.02127  0.09982   0.979  0.000  0.000
    42 H   0.02127  0.09982   0.979  0.000  0.000
    43 H   0.02127  0.09982   0.979  0.000  0.000
    44 H   0.02127  0.09982   0.979  0.000  0.000
    45 N  -0.03498 -0.27934   1.121  3.914  0.000
    46 N  -0.03499 -0.27934   1.121  3.914  0.000
    47 N  -0.03498 -0.27933   1.121  3.914  0.000
    48 N  -0.03498 -0.27933   1.121  3.914  0.000
    49 N  -0.03501 -0.27935   1.121  3.914  0.000
    50 N  -0.03501 -0.27936   1.121  3.914  0.000
    51 N  -0.03501 -0.27935   1.121  3.914  0.000
    52 N  -0.03500 -0.27935   1.121  3.914  0.000
    53 C   0.22784  0.39925   1.060  2.712  0.000
    54 C   0.22783  0.39924   1.060  2.712  0.000
    55 C   0.22784  0.39925   1.060  2.712  0.000
    56 C   0.22785  0.39926   1.060  2.712  0.000
    57 O  -0.40224 -0.44509   1.723  4.679  0.000
    58 O  -0.40225 -0.44510   1.723  4.679  0.000
    59 O  -0.40222 -0.44508   1.723  4.679  0.000
    60 O  -0.40221 -0.44507   1.723  4.679  0.000
    61 C   0.02625  0.05509   1.073  2.900  0.000
    62 C   0.02624  0.05509   1.073  2.900  0.000
    63 C   0.02624  0.05509   1.073  2.900  0.000
    64 C   0.02625  0.05509   1.073  2.900  0.000
    65 H   0.02932  0.10604   0.971  0.000  0.000
    66 H   0.02932  0.10604   0.971  0.000  0.000
    67 H   0.02932  0.10604   0.971  0.000  0.000
    68 H   0.02932  0.10604   0.971  0.000  0.000
    69 H   0.07395  0.16470   0.926  0.000  0.000
    70 H   0.07395  0.16470   0.926  0.000  0.000
    71 H   0.07395  0.16470   0.926  0.000  0.000
    72 H   0.07396  0.16470   0.926  0.000  0.000
    73 F  -0.73042 -0.72822   1.994  5.737  0.000
 
 Wiberg/Mayer (AO) data. WBOs > 0.1 written file <wbo>
 largest (>0.05) Wiberg bond orders for each atom
           total WBO             WBO to atom ...
     1  C   3.979    N   49 1.009    N   13 0.984    C    5 0.957    H   41 0.945
     2  C   3.979    N   50 1.009    N   14 0.984    C    6 0.957    H   42 0.945
     3  C   3.979    N   51 1.009    N   15 0.984    C    7 0.957    H   43 0.945
     4  C   3.979    N   52 1.009    N   16 0.984    C    8 0.957    H   44 0.945
     5  C   3.979    N   45 1.009    N    9 0.984    C    1 0.957    H   37 0.945
     6  C   3.979    N   46 1.009    N   10 0.984    C    2 0.957    H   38 0.945
     7  C   3.979    N   47 1.009    N   11 0.984    C    3 0.957    H   39 0.945
     8  C   3.979    N   48 1.009    N   12 0.984    C    4 0.957    H   40 0.945
     9  N   3.425    C   17 1.111    C   25 0.999    C    5 0.984    O   21 0.149
    10  N   3.425    C   18 1.111    C   26 0.999    C    6 0.984    O   22 0.149
    11  N   3.425    C   19 1.111    C   27 0.999    C    7 0.984    O   23 0.149
    12  N   3.425    C   20 1.111    C   28 0.999    C    8 0.984    O   24 0.149
    13  N   3.425    C   17 1.111    C   26 0.999    C    1 0.984    O   21 0.149
    14  N   3.425    C   18 1.111    C   27 0.999    C    2 0.984    O   22 0.149
    15  N   3.425    C   19 1.111    C   28 0.999    C    3 0.984    O   23 0.149
    16  N   3.425    C   20 1.111    C   25 0.999    C    4 0.984    O   24 0.149
    17  C   3.967    O   21 1.679    N    9 1.111    N   13 1.111
    18  C   3.967    O   22 1.679    N   10 1.111    N   14 1.111
    19  C   3.967    O   23 1.679    N   11 1.111    N   15 1.111
    20  C   3.967    O   24 1.679    N   12 1.111    N   16 1.111
    21  O   2.036    C   17 1.679    N    9 0.149    N   13 0.149
    22  O   2.036    C   18 1.679    N   10 0.149    N   14 0.149
    23  O   2.036    C   19 1.679    N   11 0.149    N   15 0.149
    24  O   2.036    C   20 1.679    N   12 0.149    N   16 0.149
    25  C   3.971    N    9 0.999    N   16 0.999    H   29 0.964    H   33 0.956
    26  C   3.971    N   10 0.999    N   13 0.999    H   30 0.964    H   34 0.956
    27  C   3.971    N   14 0.999    N   11 0.999    H   31 0.964    H   35 0.956
    28  C   3.971    N   12 0.999    N   15 0.999    H   32 0.964    H   36 0.956
    29  H   0.998    C   25 0.964
    30  H   0.998    C   26 0.964
    31  H   0.998    C   27 0.964
    32  H   0.998    C   28 0.964
    33  H   0.994    C   25 0.956
    34  H   0.994    C   26 0.956
    35  H   0.994    C   27 0.956
    36  H   0.994    C   28 0.956
    37  H   0.999    C    5 0.945
    38  H   0.999    C    6 0.945
    39  H   0.999    C    7 0.945
    40  H   0.999    C    8 0.945
    41  H   0.999    C    1 0.945
    42  H   0.999    C    2 0.945
    43  H   0.999    C    3 0.945
    44  H   0.999    C    4 0.945
    45  N   3.399    C   53 1.070    C    5 1.009    C   61 0.999    O   57 0.135
    46  N   3.399    C   54 1.070    C    6 1.009    C   62 0.999    O   58 0.135
    47  N   3.399    C   55 1.070    C    7 1.009    C   63 0.999    O   59 0.135
    48  N   3.399    C   56 1.070    C    8 1.009    C   64 0.999    O   60 0.135
    49  N   3.399    C   53 1.070    C    1 1.009    C   62 0.999    O   57 0.135
    50  N   3.399    C   54 1.070    C    2 1.009    C   63 0.999    O   58 0.135
    51  N   3.399    C   55 1.070    C    3 1.009    C   64 0.999    O   59 0.135
    52  N   3.399    C   56 1.070    C    4 1.009    C   61 0.999    O   60 0.135
    53  C   3.965    O   57 1.691    N   45 1.070    N   49 1.070    F   73 0.070
    54  C   3.965    O   58 1.691    N   46 1.070    N   50 1.070    F   73 0.070
    55  C   3.965    O   59 1.691    N   47 1.070    N   51 1.070    F   73 0.070
    56  C   3.965    O   60 1.691    N   48 1.070    N   52 1.070    F   73 0.070
    57  O   2.055    C   53 1.691    N   45 0.135    N   49 0.135
    58  O   2.055    C   54 1.691    N   46 0.135    N   50 0.135
    59  O   2.055    C   55 1.691    N   47 0.135    N   51 0.135
    60  O   2.055    C   56 1.691    N   48 0.135    N   52 0.135
    61  C   3.971    N   45 0.999    N   52 0.999    H   65 0.963    H   69 0.955
    62  C   3.971    N   46 0.999    N   49 0.999    H   66 0.963    H   70 0.955
    63  C   3.971    N   47 0.999    N   50 0.999    H   67 0.963    H   71 0.955
    64  C   3.971    N   48 0.999    N   51 0.999    H   68 0.963    H   72 0.955
    65  H   0.999    C   61 0.963
    66  H   0.999    C   62 0.963
    67  H   0.999    C   63 0.963
    68  H   0.999    C   64 0.963
    69  H   0.994    C   61 0.955
    70  H   0.994    C   62 0.955
    71  H   0.994    C   63 0.955
    72  H   0.994    C   64 0.955
    73  F   0.512    C   54 0.070    C   53 0.070    C   55 0.070    C   56 0.070
 
molecular dipole:
                 x           y           z       tot (Debye)
 q only:        0.000       0.001      -1.173
   full:        0.000       0.001      -1.350       3.433
molecular quadrupole (traceless):
                xx          xy          yy          xz          yz          zz
 q only:       51.584       0.000      51.584       0.000       0.003    -103.168
  q+dip:       61.666       0.000      61.666       0.000       0.003    -123.331
   full:       62.666       0.000      62.666       0.000       0.003    -125.333
 SCC converged in                      3  cycles
 
SCC energy    :    -153.5418016
rep           :       1.5068865
ES            :       0.2076670
AES           :      -0.0058281
disp          :      -0.1094719
XB            :       0.0000000
fix           :       0.0000000
total E       :    -152.1443871
atomizationE  :      19.9898423    12543.82
(atE without considerung molecular charge,
 total energy contains solvation terms)
H-L gap (eV)  :          1.2004
 !!!!!!!!!!!!!!!!!!!!!!!!!!!!!!!!!!!
 ! Note: the input coordinates are !
 ! NOT overwritten. The optimized  !
 ! ones are on file <xtbopt.coord> !
 ! (or on <xtbopt.xyz> if it was a !
 ! xyz file)                       !
 !!!!!!!!!!!!!!!!!!!!!!!!!!!!!!!!!!!
 
speedup  1.22
cpu  time for all    4.91 s
wall time for all    4.02 s
