 
        ______________________________________
       |                                      |
       |           ==================         |
       |                 x T B                |
       |           ==================         |
       |               S. Grimme              |
       |        Universitaet Bonn, MCTC       |
       |         2015-18, Version 5.0         |
       |      Sat Jan 20 11:00:33 CET 2018    |
       |______________________________________|
 
        This code comes without any warranty
        for non-commercial, academia use only.
        Cite GFN-xTB work as:
        S. Grimme, C. Bannwarth, P. Shushkov
        JCTC, 13 (2017) 1989-2009
        for GFN2:
        C. Bannwarth, S. Ehlert, S. Grimme
        to be published.
        sTDA-xTB:
        S. Grimme  &  C. Bannwarth, JCP 145 (2016) 054103
        in the mass-spec context additionally:
        V. Asgeirsson, C.Bauer, S. Grimme, Chem. Sci. 8 (2017) 4879
 
        with help from
        P. Shushkov, G. Brandenburg, S. Dohm, J. Pisarek,
        F. März, M. Checinski, S. Ehrlich, S. Spicher, 
        P. Pracht, E. Caldeweyher, S. Ehlert, and C. Bannwarth.
 
        usage        :
        xtb <coord_file> [options]
        where <coord_file> is a valid file of TM)
        (*coord, Bohr) or xmol (*xyz, Angstroem)
        format.

        options:
        -chrg <int>   : molecular charge
        -uhf  <int>   : # of unpaired electrons(=2*S)
        -nox          : skip second, extended part in sTDA-xTB
        -pop          : do population analysis
                      : (default for -nox)
        -mowr <real>  : cut MO write above (def.3 Eh)
        -molden       : write formatted molden file
        -parx <file>  : read parameters for sTDA-xTB
                        calc (def:~/.param_stda2.xtb)
        -parv <file>  : read parameters for vTB part in
                        sTDA-xTB (def: ~/.param_stda1.xtb)
        -xtemp <real> : el. temp for xTB (def. 0 K)
        -etemp <real> : el. temp for GFN (def. 300 K)
        -fod          : do a xTB calc. of the FOD
                        and write molden.input file 
                        with appropriate occupations
                        for plotting. Def. T=12500 K
 
        -gfn          : use GFN-xTB
        -grad         : GFN-xTB gradient
        -acc <real>   : GFN-xTB accuracy (def. 1.0)
        -opt [level]  : optimize at GFN-xTB
                      : level=crude,vloose,loose,
                      :       tight,vtight
        -hess         : compute Hessian at GFN-xTB
        -ohess        : optimize and compute Hessian
        -omd          : optimize and do MD
        -siman        : conformational search
        -screen       : opt. loop over ensemble
        -gmd          : annealed MD for GMD procedure
        -modef        : vib mode following
        -gbsa [string1] [string2]
                        use GBSA implicit solvent
                        for solvent [string1] and
                        solvation state [string2]=
                        reference, bar1M (default=1M)
        additional GFN/opt/MD/siman options read from
        $XTBHOME/.xtbrc or $set in coordinate file
 
       spin and charge state information can be on:
       <.CHRG> (charge) and <.UHF> (=nalpha-nbeta)
       -uhf and -chrg override the file info.
       useful machine settings:
       setenv MKL_NUM_THREADS <NCORE_ON_YOUR_MACHINE>
       setenv OMP_STACKSIZE 500m
       limit stacksize unlimited
 
       total energies in Eh, gaps/HL energies in eV
       please read REVISION and HOWTO files carefully
 =============================
  # OMP threads =                     1
 =============================
 
 xtbhome directory:/Applications/xtb/
 
 argument                      1 :-chrg
 argument                      2 :-1
 argument                      3 :-gmd
 
 number of atoms            :    73
 number of electrons        :   256
 charge                     : -1
 spin                       : 0.0
 first test random number   :  0.3591
 
 
KAB for pair M(3d)-M(3d) :  1.1000
KAB for pair M(4d)-M(4d) :  1.2000
KAB for pair M(5d)-M(5d) :  1.2000
 -----------------------------------------
  G F N (Geometry, Frequency, Non-covalent)
        parametrization, version                     2
 /Applications/xtb/.param_gfn2.xtb
 -----------------------------------------
      method parameters     
 k(s)        :  1.8500
 k(p)        :  2.2500
 k(d)        :  2.0000
 k(f)        :  0.0000
 alphaj      :  1.0000
 kEN (H0ij)  : -2.3620
 D3 a1       :  0.6900
 D3 a2       :  4.0530
 D3 s8       :  2.0000
 D3atm       :  1.0000
 AESdamp     :  5.5000
 AESrad      :  1.9230
 expscalexp  : -0.2500
 
     -------------------------
     ! NO SOLVENT MODEL USED !
     -------------------------
 
 doing EN charges ...
 sum q : -0.1000000D+01
 point charge moment (au)
     X       Y       Z   
   0.0000   0.0000  -0.0413  total (Debye):    0.105
 
            Z      q(EN)   CN      Cart. coordinates
     1  C   4.0    0.20    4.31    -6.01063    -3.06876     0.00000
     2  C   4.0    0.20    4.31     3.06876    -6.01063     0.00000
     3  C   4.0    0.20    4.31     6.01063     3.06876     0.00000
     4  C   4.0    0.20    4.31    -3.06876     6.01063     0.00000
     5  C   4.0    0.20    4.31    -6.74558    -0.18419     0.00000
     6  C   4.0    0.20    4.31     0.18419    -6.74558     0.00000
     7  C   4.0    0.20    4.31     6.74558     0.18419     0.00000
     8  C   4.0    0.20    4.31    -0.18419     6.74558     0.00000
     9  N   5.0   -0.22    3.22    -5.73029     0.72314    -2.35747
    10  N   5.0   -0.22    3.22    -0.72314    -5.73029    -2.35747
    11  N   5.0   -0.22    3.22     5.73029    -0.72314    -2.35747
    12  N   5.0   -0.22    3.22     0.72314     5.73029    -2.35747
    13  N   5.0   -0.22    3.22    -4.68612    -3.38029    -2.35874
    14  N   5.0   -0.22    3.22     3.38029    -4.68612    -2.35874
    15  N   5.0   -0.22    3.22     4.68612     3.38029    -2.35874
    16  N   5.0   -0.22    3.22    -3.38029     4.68612    -2.35874
    17  C   4.0    0.42    3.26    -4.64757    -1.18514    -3.80859
    18  C   4.0    0.42    3.26     1.18514    -4.64757    -3.80859
    19  C   4.0    0.42    3.26     4.64757     1.18514    -3.80859
    20  C   4.0    0.42    3.26    -1.18514     4.64757    -3.80859
    21  O   6.0   -0.36    1.06    -4.00354    -1.02004    -5.99799
    22  O   6.0   -0.36    1.06     1.02004    -4.00354    -5.99799
    23  O   6.0   -0.36    1.06     4.00354     1.02004    -5.99799
    24  O   6.0   -0.36    1.06    -1.02004     4.00354    -5.99799
    25  C   4.0    0.24    4.14    -5.60266     3.32537    -3.15669
    26  C   4.0    0.24    4.14    -3.32537    -5.60266    -3.15669
    27  C   4.0    0.24    4.14     5.60266    -3.32537    -3.15669
    28  C   4.0    0.24    4.14     3.32537     5.60266    -3.15669
    29  H   1.0   -0.06    1.00    -7.29128     4.32734    -2.48161
    30  H   1.0   -0.06    1.00    -4.32734    -7.29128    -2.48161
    31  H   1.0   -0.06    1.00     7.29128    -4.32734    -2.48161
    32  H   1.0   -0.06    1.00     4.32734     7.29128    -2.48161
    33  H   1.0   -0.06    1.01    -5.57167     3.30513    -5.22405
    34  H   1.0   -0.06    1.01    -3.30513    -5.57167    -5.22405
    35  H   1.0   -0.06    1.01     5.57167    -3.30513    -5.22405
    36  H   1.0   -0.06    1.01     3.30513     5.57167    -5.22405
    37  H   1.0   -0.06    1.00    -8.81330     0.09827     0.00000
    38  H   1.0   -0.06    1.00    -0.09827    -8.81330     0.00000
    39  H   1.0   -0.06    1.00     8.81330    -0.09827     0.00000
    40  H   1.0   -0.06    1.00     0.09827     8.81330     0.00000
    41  H   1.0   -0.06    1.00    -7.69154    -4.30568     0.00000
    42  H   1.0   -0.06    1.00     4.30568    -7.69154     0.00000
    43  H   1.0   -0.06    1.00     7.69154     4.30568     0.00000
    44  H   1.0   -0.06    1.00    -4.30568     7.69154     0.00000
    45  N   5.0   -0.22    3.22    -5.73029     0.72314     2.35747
    46  N   5.0   -0.22    3.22    -0.72314    -5.73029     2.35747
    47  N   5.0   -0.22    3.22     5.73029    -0.72314     2.35747
    48  N   5.0   -0.22    3.22     0.72314     5.73029     2.35747
    49  N   5.0   -0.22    3.22    -4.68612    -3.38029     2.35874
    50  N   5.0   -0.22    3.22     3.38029    -4.68612     2.35874
    51  N   5.0   -0.22    3.22     4.68612     3.38029     2.35874
    52  N   5.0   -0.22    3.22    -3.38029     4.68612     2.35874
    53  C   4.0    0.43    3.27    -4.64757    -1.18514     3.80859
    54  C   4.0    0.43    3.27     1.18514    -4.64757     3.80859
    55  C   4.0    0.43    3.27     4.64757     1.18514     3.80859
    56  C   4.0    0.43    3.27    -1.18514     4.64757     3.80859
    57  O   6.0   -0.36    1.06    -4.00354    -1.02004     5.99799
    58  O   6.0   -0.36    1.06     1.02004    -4.00354     5.99799
    59  O   6.0   -0.36    1.06     4.00354     1.02004     5.99799
    60  O   6.0   -0.36    1.06    -1.02004     4.00354     5.99799
    61  C   4.0    0.24    4.14    -5.60266     3.32537     3.15669
    62  C   4.0    0.24    4.14    -3.32537    -5.60266     3.15669
    63  C   4.0    0.24    4.14     5.60266    -3.32537     3.15669
    64  C   4.0    0.24    4.14     3.32537     5.60266     3.15669
    65  H   1.0   -0.06    1.00    -7.29128     4.32734     2.48161
    66  H   1.0   -0.06    1.00    -4.32734    -7.29128     2.48161
    67  H   1.0   -0.06    1.00     7.29128    -4.32734     2.48161
    68  H   1.0   -0.06    1.00     4.32734     7.29128     2.48161
    69  H   1.0   -0.06    1.01    -5.57167     3.30513     5.22405
    70  H   1.0   -0.06    1.01    -3.30513    -5.57167     5.22405
    71  H   1.0   -0.06    1.01     5.57167    -3.30513     5.22405
    72  H   1.0   -0.06    1.01     3.30513     5.57167     5.22405
    73  F   7.0   -0.08    0.04     0.00000     0.00000     1.88973
 
  Z AO/shell   Hii/eV     exponent
  1     Sat Jan 20 17:55:17 CET 2018    EN: 2.200 GAM: 0.531  GM3:-0.4370
     1s    -10.248275    1.266496
  6     Sat Jan 20 17:55:17 CET 2018    EN: 2.550 GAM: 0.417  GM3:-0.0654
     2s    -15.292509    2.030071
     2p    -10.408465    1.801676
  7     Sat Jan 20 17:55:17 CET 2018    EN: 3.040 GAM: 0.444  GM3:-0.1301
     2s    -16.687725    2.226550
     2p    -13.175143    1.981921
  8     Sat Jan 20 17:55:17 CET 2018    EN: 3.440 GAM: 0.468  GM3: 0.0937
     2s    -20.924998    2.442614
     2p    -15.243501    2.233841
  9     Sat Jan 20 11:31:23 CET 2018    EN: 3.980 GAM: 0.596  GM3: 0.1504
     2s    -24.754958    2.510414
     2p    -15.597656    2.417462
 no old-style atom pair restraing (fixing) potential
 
 molecular fragmentation (1/2 indicates fragments):
1111111111111111111111111111111111111111111111111111111111111111111111112
# atoms in fragment 1/2:    72     1
 fragment masses (1/2) :      664.56       19.00
CMA distance (Bohr)    :   1.890
constraining FC (au)   :  0.0500
 
             =======================================
             |                                     |
             |        S C C  calculation           |
             |                                     |
             =======================================
 #proc     :                      1
 Ncao      :                    220
 Nao       :                    220
 Nel       :                    256
 T(el)     :   300.0
 intcut    :    25.0
 scfconv   :  0.100E-05
   qconv   :  0.200E-04
 intneglect:  0.100E-07
 broydamp  :      0.400
 Nshell    :                    122
  q data taken from xtbrestart
  CAMM data taken from xtbrestart
 iter      E             dE          RMSdq      gap      omega  full diag
   1   -153.4384886 -0.153438E+03  0.120E-08    0.40       0.0  T
   2   -153.4384886  0.255795E-12  0.780E-09    0.40  100000.0  T
   3   -153.4384886  0.596856E-12  0.474E-09    0.40  100000.0  T
speedup  4.15
cpu  time for SCC    0.77 s
wall time for SCC    0.19 s

          eigenvalues
 #    :         116        117        118        119        120        121        122        123
 occ. :        2.000      2.000      2.000      2.000      2.000      2.000      2.000      2.000
 eps  :        -7.588     -7.588     -7.381     -7.358     -7.358     -7.264     -7.058     -7.058
 #    :         124        125        126        127        128        129        130        131
 occ. :        2.000      2.000      2.000      2.000      1.999      0.001      0.000      0.000
 eps  :        -7.053     -7.025     -2.908     -2.908     -2.857     -2.461     -2.208     -2.208
 #    :         132        133        134        135        136        137        138        139
 occ. :        0.000      0.000      0.000      0.000      0.000      0.000      0.000      0.000
 eps  :        -2.004     -1.760     -1.498     -1.498     -1.356      2.240      2.305      2.305
 
 
 Mulliken/CM5 charges        n(s)   n(p)   n(d)
     1 C   0.06361  0.14238   1.083  2.853  0.000
     2 C   0.06361  0.14238   1.083  2.853  0.000
     3 C   0.06361  0.14238   1.083  2.853  0.000
     4 C   0.06361  0.14238   1.083  2.853  0.000
     5 C   0.06366  0.14251   1.083  2.853  0.000
     6 C   0.06366  0.14251   1.083  2.853  0.000
     7 C   0.06366  0.14251   1.083  2.853  0.000
     8 C   0.06366  0.14251   1.083  2.853  0.000
     9 N  -0.03372 -0.27012   1.131  3.902  0.000
    10 N  -0.03372 -0.27012   1.131  3.902  0.000
    11 N  -0.03372 -0.27012   1.131  3.902  0.000
    12 N  -0.03372 -0.27012   1.131  3.902  0.000
    13 N  -0.03389 -0.27015   1.132  3.902  0.000
    14 N  -0.03389 -0.27015   1.132  3.902  0.000
    15 N  -0.03389 -0.27015   1.132  3.902  0.000
    16 N  -0.03389 -0.27015   1.132  3.902  0.000
    17 C   0.22668  0.39328   1.064  2.710  0.000
    18 C   0.22668  0.39328   1.064  2.710  0.000
    19 C   0.22668  0.39328   1.064  2.710  0.000
    20 C   0.22668  0.39328   1.064  2.710  0.000
    21 O  -0.40582 -0.44583   1.730  4.675  0.000
    22 O  -0.40582 -0.44583   1.730  4.675  0.000
    23 O  -0.40582 -0.44583   1.730  4.675  0.000
    24 O  -0.40582 -0.44583   1.730  4.675  0.000
    25 C   0.03236  0.05642   1.072  2.896  0.000
    26 C   0.03236  0.05642   1.072  2.896  0.000
    27 C   0.03236  0.05642   1.072  2.896  0.000
    28 C   0.03236  0.05642   1.072  2.896  0.000
    29 H   0.03337  0.11023   0.967  0.000  0.000
    30 H   0.03337  0.11023   0.967  0.000  0.000
    31 H   0.03337  0.11023   0.967  0.000  0.000
    32 H   0.03337  0.11023   0.967  0.000  0.000
    33 H   0.07048  0.15768   0.930  0.000  0.000
    34 H   0.07048  0.15768   0.930  0.000  0.000
    35 H   0.07048  0.15768   0.930  0.000  0.000
    36 H   0.07048  0.15768   0.930  0.000  0.000
    37 H   0.02282  0.10188   0.977  0.000  0.000
    38 H   0.02282  0.10188   0.977  0.000  0.000
    39 H   0.02282  0.10188   0.977  0.000  0.000
    40 H   0.02282  0.10188   0.977  0.000  0.000
    41 H   0.02289  0.10196   0.977  0.000  0.000
    42 H   0.02289  0.10196   0.977  0.000  0.000
    43 H   0.02289  0.10196   0.977  0.000  0.000
    44 H   0.02289  0.10196   0.977  0.000  0.000
    45 N  -0.03559 -0.27247   1.127  3.909  0.000
    46 N  -0.03559 -0.27247   1.127  3.909  0.000
    47 N  -0.03559 -0.27247   1.127  3.909  0.000
    48 N  -0.03559 -0.27247   1.127  3.909  0.000
    49 N  -0.03575 -0.27250   1.127  3.908  0.000
    50 N  -0.03575 -0.27250   1.127  3.908  0.000
    51 N  -0.03575 -0.27250   1.127  3.908  0.000
    52 N  -0.03575 -0.27250   1.127  3.908  0.000
    53 C   0.22259  0.38976   1.065  2.713  0.000
    54 C   0.22259  0.38976   1.065  2.713  0.000
    55 C   0.22259  0.38976   1.065  2.713  0.000
    56 C   0.22259  0.38976   1.065  2.713  0.000
    57 O  -0.40124 -0.44144   1.731  4.671  0.000
    58 O  -0.40124 -0.44144   1.731  4.671  0.000
    59 O  -0.40124 -0.44144   1.731  4.671  0.000
    60 O  -0.40124 -0.44144   1.731  4.671  0.000
    61 C   0.02959  0.05373   1.075  2.895  0.000
    62 C   0.02959  0.05373   1.075  2.895  0.000
    63 C   0.02959  0.05373   1.075  2.895  0.000
    64 C   0.02959  0.05373   1.075  2.895  0.000
    65 H   0.02844  0.10530   0.972  0.000  0.000
    66 H   0.02844  0.10530   0.972  0.000  0.000
    67 H   0.02844  0.10530   0.972  0.000  0.000
    68 H   0.02844  0.10530   0.972  0.000  0.000
    69 H   0.07242  0.15967   0.928  0.000  0.000
    70 H   0.07242  0.15967   0.928  0.000  0.000
    71 H   0.07242  0.15967   0.928  0.000  0.000
    72 H   0.07242  0.15967   0.928  0.000  0.000
    73 F  -0.77158 -0.76912   1.997  5.774  0.000
 
 Wiberg/Mayer (AO) data. WBOs > 0.1 written file <wbo>
 largest (>0.05) Wiberg bond orders for each atom
           total WBO             WBO to atom ...
     1  C   3.977    N   49 1.003    N   13 0.992    C    5 0.951    H   41 0.947
     2  C   3.977    N   50 1.003    N   14 0.992    C    6 0.951    H   42 0.947
     3  C   3.977    N   51 1.003    N   15 0.992    C    7 0.951    H   43 0.947
     4  C   3.977    N   52 1.003    N   16 0.992    C    8 0.951    H   44 0.947
     5  C   3.977    N   45 1.003    N    9 0.992    C    1 0.951    H   37 0.947
     6  C   3.977    N   46 1.003    N   10 0.992    C    2 0.951    H   38 0.947
     7  C   3.977    N   47 1.003    N   11 0.992    C    3 0.951    H   39 0.947
     8  C   3.977    N   48 1.003    N   12 0.992    C    4 0.951    H   40 0.947
     9  N   3.421    C   17 1.103    C   25 0.997    C    5 0.992    O   21 0.149
    10  N   3.421    C   18 1.103    C   26 0.997    C    6 0.992    O   22 0.149
    11  N   3.421    C   19 1.103    C   27 0.997    C    7 0.992    O   23 0.149
    12  N   3.421    C   20 1.103    C   28 0.997    C    8 0.992    O   24 0.149
    13  N   3.421    C   17 1.103    C   26 0.997    C    1 0.992    O   21 0.148
    14  N   3.421    C   18 1.103    C   27 0.997    C    2 0.992    O   22 0.148
    15  N   3.421    C   19 1.103    C   28 0.997    C    3 0.992    O   23 0.148
    16  N   3.421    C   20 1.103    C   25 0.997    C    4 0.992    O   24 0.148
    17  C   3.964    O   21 1.692    N    9 1.103    N   13 1.103
    18  C   3.964    O   22 1.692    N   10 1.103    N   14 1.103
    19  C   3.964    O   23 1.692    N   11 1.103    N   15 1.103
    20  C   3.964    O   24 1.692    N   12 1.103    N   16 1.103
    21  O   2.046    C   17 1.692    N    9 0.149    N   13 0.148
    22  O   2.046    C   18 1.692    N   10 0.149    N   14 0.148
    23  O   2.046    C   19 1.692    N   11 0.149    N   15 0.148
    24  O   2.046    C   20 1.692    N   12 0.149    N   16 0.148
    25  C   3.971    N   16 0.997    N    9 0.997    H   29 0.964    H   33 0.958
    26  C   3.971    N   13 0.997    N   10 0.997    H   30 0.964    H   34 0.958
    27  C   3.971    N   14 0.997    N   11 0.997    H   31 0.964    H   35 0.958
    28  C   3.971    N   15 0.997    N   12 0.997    H   32 0.964    H   36 0.958
    29  H   0.998    C   25 0.964
    30  H   0.998    C   26 0.964
    31  H   0.998    C   27 0.964
    32  H   0.998    C   28 0.964
    33  H   0.994    C   25 0.958
    34  H   0.994    C   26 0.958
    35  H   0.994    C   27 0.958
    36  H   0.994    C   28 0.958
    37  H   0.999    C    5 0.947
    38  H   0.999    C    6 0.947
    39  H   0.999    C    7 0.947
    40  H   0.999    C    8 0.947
    41  H   0.999    C    1 0.947
    42  H   0.999    C    2 0.947
    43  H   0.999    C    3 0.947
    44  H   0.999    C    4 0.947
    45  N   3.398    C   53 1.076    C    5 1.003    C   61 0.997    O   57 0.138
    46  N   3.398    C   54 1.076    C    6 1.003    C   62 0.997    O   58 0.138
    47  N   3.398    C   55 1.076    C    7 1.003    C   63 0.997    O   59 0.138
    48  N   3.398    C   56 1.076    C    8 1.003    C   64 0.997    O   60 0.138
    49  N   3.398    C   53 1.076    C    1 1.003    C   62 0.997    O   57 0.137
    50  N   3.398    C   54 1.076    C    2 1.003    C   63 0.997    O   58 0.137
    51  N   3.398    C   55 1.076    C    3 1.003    C   64 0.997    O   59 0.137
    52  N   3.398    C   56 1.076    C    4 1.003    C   61 0.997    O   60 0.137
    53  C   3.965    O   57 1.691    N   45 1.076    N   49 1.076    F   73 0.059
    54  C   3.965    O   58 1.691    N   46 1.076    N   50 1.076    F   73 0.059
    55  C   3.965    O   59 1.691    N   47 1.076    N   51 1.076    F   73 0.059
    56  C   3.965    O   60 1.691    N   48 1.076    N   52 1.076    F   73 0.059
    57  O   2.052    C   53 1.691    N   45 0.138    N   49 0.137
    58  O   2.052    C   54 1.691    N   46 0.138    N   50 0.137
    59  O   2.052    C   55 1.691    N   47 0.138    N   51 0.137
    60  O   2.052    C   56 1.691    N   48 0.138    N   52 0.137
    61  C   3.971    N   52 0.997    N   45 0.997    H   65 0.964    H   69 0.958
    62  C   3.971    N   49 0.997    N   46 0.997    H   66 0.964    H   70 0.958
    63  C   3.971    N   50 0.997    N   47 0.997    H   67 0.964    H   71 0.958
    64  C   3.971    N   51 0.997    N   48 0.997    H   68 0.964    H   72 0.958
    65  H   0.999    C   61 0.964
    66  H   0.999    C   62 0.964
    67  H   0.999    C   63 0.964
    68  H   0.999    C   64 0.964
    69  H   0.994    C   61 0.958
    70  H   0.994    C   62 0.958
    71  H   0.994    C   63 0.958
    72  H   0.994    C   64 0.958
    73  F   0.437    C   56 0.059    C   54 0.059    C   55 0.059    C   53 0.059
 density
 
 cube file module (SG, 7/16)
 cube_pthr     :   0.005
 cube_step     :   0.400
 non-zero P (%):  32.304   nmat:    7853
 Grid Boundaries (x y z) :
   11.8133038823324        11.8133038823324        8.99799016306937     
  -11.8133038823324       -11.8133038823324       -8.99799016306937     
 Total # of points                162000
 writing density.cub
 N    (numint) : ******
cpu  time for cube   41.27 s
wall time for cube   39.98 s
 
molecular dipole:
                 x           y           z       tot (Debye)
 q only:        0.000      -0.000      -1.489
   full:        0.000      -0.000      -1.478       3.757
molecular quadrupole (traceless):
                xx          xy          yy          xz          yz          zz
 q only:       52.503       0.000      52.503       0.000      -0.000    -105.006
  q+dip:       62.066       0.000      62.066       0.000      -0.000    -124.132
   full:       63.062       0.000      63.062       0.000      -0.000    -126.125
 SCC converged in                      3  cycles
 
SCC energy    :    -153.4384886
rep           :       1.4203293
ES            :       0.2233119
AES           :      -0.0048835
disp          :      -0.1067954
XB            :       0.0000000
fix           :       0.0000000
total E       :    -152.1249547
atomizationE  :      19.9704099    12531.62
(atE without considerung molecular charge,
 total energy contains solvation terms)
H-L gap (eV)  :          0.3969
 
       ===================================
       |          GMD driver             |
       ===================================
 
 
 MD time /ps        :   50.00
 dt /fs             :    4.00
 SCC accuracy       :    1.00
 temperature /K     :  298.15
 max steps          : 12500
 block length (av.) :   875
 dumpstep(trj) /fs  :   50.00    12
 dumpstep(coords)/fs: 1000.00   250
 minimum runtime(ps):   5.0
 maximum runtime(ps):  50.0
 H atoms mass (amu) :     4
 # deg. of freedom  :   135
 SHAKE on. # bonds  :                    84  all: T
 Berendsen THERMOSTAT on
 EQUILIBRATION mode
         time (ps)    <Epot>      Ekin   <T>   T     Etot
  q data taken from xtbrestart
  CAMM data taken from xtbrestart
      0    0.00      0.00000   0.0380    0.    0.  -152.08698
est. speed in wall clock h for 100 ps :  3.42
    200    0.80   -151.38143   0.0227  105.  106.  -152.12545
    400    1.60   -151.76346   0.0182   98.   85.  -152.12945
    600    2.40   -151.89121   0.0198   95.   93.  -152.12900
    800    3.20   -151.95526   0.0177   94.   83.  -152.12800
block <Epot> / <T> :    -152.14527   93.     drift:  0.99D+02   Tbath : 134.
   1000    4.00   -151.99281   0.0251   96.  117.  -152.11129
   1200    4.80   -152.01698   0.0282  102.  132.  -152.10883
   1400    5.60   -152.03431   0.0270  107.  126.  -152.10780
   1600    6.40   -152.04723   0.0314  110.  147.  -152.10601
block <Epot> / <T> :    -152.13853  132.     drift:  0.99D+02   Tbath : 201.
   1800    7.20   -152.05722   0.0333  114.  156.  -152.09145
   2000    8.00   -152.06393   0.0496  122.  232.  -152.08034
   2200    8.80   -152.06930   0.0421  129.  197.  -152.07787
   2400    9.60   -152.07374   0.0507  135.  237.  -152.08043
   2600   10.40   -152.07746   0.0392  140.  184.  -152.07764
block <Epot> / <T> :    -152.12363  197.     drift:  0.99D+02   Tbath : 298.
   2800   11.20   -152.07974   0.0648  149.  303.  -152.04216
   3000   12.00   -152.08120   0.0697  159.  326.  -152.03466
   3200   12.80   -152.08244   0.0629  167.  294.  -152.03972
   3400   13.60   -152.08349   0.0600  175.  281.  -152.03982
block <Epot> / <T> :    -152.10226  292.     drift:  0.14D-01   Tbath : 298.
   3600   14.40   -152.08450   0.0641  182.  300.  -152.03970
   3800   15.20   -152.08535   0.0636  188.  298.  -152.03426
   4000   16.00   -152.08613   0.0587  193.  275.  -152.02768
   4200   16.80   -152.08683   0.0671  198.  314.  -152.03725
block <Epot> / <T> :    -152.10106  298.     drift:  0.13D-01   Tbath : 298.
   4400   17.60   -152.08749   0.0624  203.  292.  -152.04342
   4600   18.40   -152.08806   0.0598  207.  280.  -152.03291
   4800   19.20   -152.08865   0.0655  211.  306.  -152.04309
   5000   20.00   -152.08916   0.0732  214.  343.  -152.03112
   5200   20.80   -152.08965   0.0600  218.  281.  -152.04327
block <Epot> / <T> :    -152.10142  298.     drift:  0.68D-02   Tbath : 298.
   5400   21.60   -152.09007   0.0657  221.  308.  -152.03219
   5600   22.40   -152.09044   0.0703  223.  329.  -152.03686
   5800   23.20   -152.09080   0.0684  226.  320.  -152.03432
   6000   24.00   -152.09115   0.0694  228.  325.  -152.03613
block <Epot> / <T> :    -152.10093  298.     drift:  0.37D-03   Tbath : 298.
 GOOD AVERAGES REACHED
 average properties 
 Epot               :  -152.116155795606     
 Epot (accurate SCC):  -152.116201148241     
 Ekin               :  4.911537128328038E-002
 Etot               :  -152.067040424323     
 T                  :   229.768729851376     
 normal exit of md()
 
 MD time /ps        :   50.00
 dt /fs             :    4.00
 SCC accuracy       :    1.00
 temperature /K     :  298.15
 max steps          : 50000
 block length (av.) :   875
 dumpstep(trj) /fs  :   50.00    12
 dumpstep(coords)/fs: 1000.00   250
 minimum runtime(ps):  50.0
 maximum runtime(ps): 200.0
 H atoms mass (amu) :     4
 # deg. of freedom  :   135
 SHAKE on. # bonds  :                    84  all: T
 Berendsen THERMOSTAT on
 GMD mode
 RESTART
         time (ps)    <Epot>      Ekin   <T>   T     Etot
  q data taken from xtbrestart
  CAMM data taken from xtbrestart
 reading input structure for Re-R0 averaging
      0    0.00      0.00000   0.0641    0.    0.  -152.03869
est. speed in wall clock h for 100 ps :  3.42
    200    0.80   -151.34466   0.0636  300.  297.  -152.03506
    400    1.60   -151.72190   0.0655  299.  306.  -152.04173
    600    2.40   -151.84833   0.0621  299.  290.  -152.02960
    800    3.20   -151.91145   0.0708  299.  331.  -152.03451
block <Epot> / <T> :    -152.10135  299.     drift:  0.99D+02   Tbath : 298.
   1000    4.00   -151.94933   0.0607  298.  284.  -152.03734
   1200    4.80   -151.97455   0.0551  298.  258.  -152.04208
   1400    5.60   -151.99264   0.0586  298.  274.  -152.04365
   1600    6.40   -152.00617   0.0643  298.  301.  -152.03721
block <Epot> / <T> :    -152.10090  297.     drift:  0.99D+02   Tbath : 298.
   1800    7.20   -152.01667   0.0627  298.  293.  -152.03908
   2000    8.00   -152.02510   0.0633  298.  296.  -152.03183
   2200    8.80   -152.03196   0.0595  298.  278.  -152.03791
   2400    9.60   -152.03777   0.0654  298.  306.  -152.03591
   2600   10.40   -152.04259   0.0616  298.  288.  -152.03478
block <Epot> / <T> :    -152.10101  299.     drift:  0.99D+02   Tbath : 298.
   2800   11.20   -152.04683   0.0597  298.  279.  -152.03905
   3000   12.00   -152.05046   0.0703  298.  329.  -152.03144
   3200   12.80   -152.05360   0.0603  298.  282.  -152.04326
   3400   13.60   -152.05638   0.0677  298.  317.  -152.04134
block <Epot> / <T> :    -152.10117  298.     drift:  0.44D-04   Tbath : 298.
   3600   14.40   -152.05890   0.0604  298.  282.  -152.03540
   3800   15.20   -152.06113   0.0678  298.  317.  -152.03838
   4000   16.00   -152.06316   0.0717  298.  336.  -152.02821
   4200   16.80   -152.06495   0.0702  298.  329.  -152.03768
block <Epot> / <T> :    -152.10124  298.     drift: -0.12D-03   Tbath : 298.
   4400   17.60   -152.06658   0.0683  298.  319.  -152.03028
   4600   18.40   -152.06804   0.0694  298.  325.  -152.03421
   4800   19.20   -152.06937   0.0620  298.  290.  -152.03930
   5000   20.00   -152.07063   0.0581  298.  272.  -152.03222
   5200   20.80   -152.07181   0.0622  298.  291.  -152.03927
block <Epot> / <T> :    -152.10064  298.     drift:  0.10D-03   Tbath : 298.
   5400   21.60   -152.07289   0.0690  298.  323.  -152.03981
   5600   22.40   -152.07390   0.0641  298.  300.  -152.03261
   5800   23.20   -152.07484   0.0620  298.  290.  -152.03690
   6000   24.00   -152.07569   0.0606  298.  284.  -152.03463
block <Epot> / <T> :    -152.10084  297.     drift:  0.16D-03   Tbath : 298.
   6200   24.80   -152.07649   0.0666  298.  312.  -152.03220
   6400   25.60   -152.07726   0.0630  298.  295.  -152.02777
   6600   26.40   -152.07795   0.0653  298.  306.  -152.03191
   6800   27.20   -152.07862   0.0595  298.  278.  -152.03918
   7000   28.00   -152.07925   0.0619  298.  290.  -152.03492
block <Epot> / <T> :    -152.10061  298.     drift:  0.17D-03   Tbath : 298.
   7200   28.80   -152.07985   0.0647  298.  303.  -152.02990
   7400   29.60   -152.08042   0.0685  298.  320.  -152.03648
   7600   30.40   -152.08095   0.0612  298.  286.  -152.04369
   7800   31.20   -152.08143   0.0654  298.  306.  -152.04230
block <Epot> / <T> :    -152.10049  298.     drift:  0.69D-04   Tbath : 298.
   8000   32.00   -152.08189   0.0514  298.  240.  -152.04411
   8200   32.80   -152.08235   0.0601  298.  281.  -152.04046
   8400   33.60   -152.08279   0.0612  298.  286.  -152.03418
   8600   34.40   -152.08321   0.0657  298.  307.  -152.04145
block <Epot> / <T> :    -152.10062  299.     drift:  0.76D-04   Tbath : 298.
   8800   35.20   -152.08361   0.0543  298.  254.  -152.03110
   9000   36.00   -152.08398   0.0657  298.  307.  -152.03603
   9200   36.80   -152.08435   0.0632  298.  296.  -152.03654
   9400   37.60   -152.08470   0.0614  298.  287.  -152.03065
   9600   38.40   -152.08503   0.0608  298.  284.  -152.03530
block <Epot> / <T> :    -152.10075  298.     drift: -0.57D-04   Tbath : 298.
   9800   39.20   -152.08536   0.0760  298.  355.  -152.03096
  10000   40.00   -152.08567   0.0613  298.  287.  -152.03507
  10200   40.80   -152.08596   0.0646  298.  302.  -152.03694
  10400   41.60   -152.08624   0.0650  298.  304.  -152.03487
block <Epot> / <T> :    -152.10078  298.     drift: -0.10D-03   Tbath : 298.
  10600   42.40   -152.08652   0.0644  298.  301.  -152.03900
  10800   43.20   -152.08679   0.0697  298.  326.  -152.03928
  11000   44.00   -152.08706   0.0582  298.  272.  -152.03217
  11200   44.80   -152.08732   0.0635  298.  297.  -152.03055
block <Epot> / <T> :    -152.10117  298.     drift: -0.17D-03   Tbath : 298.
  11400   45.60   -152.08755   0.0663  298.  310.  -152.03722
  11600   46.40   -152.08778   0.0550  298.  257.  -152.03738
  11800   47.20   -152.08800   0.0675  298.  316.  -152.03741
  12000   48.00   -152.08818   0.0542  298.  254.  -152.03648
  12200   48.80   -152.08838   0.0575  298.  269.  -152.03723
block <Epot> / <T> :    -152.10031  298.     drift:  0.95D-04   Tbath : 298.
  12400   49.60   -152.08859   0.0607  298.  284.  -152.03204
 GOOD AVERAGES REACHED
 average properties 
 Epot               :  -152.100846862020     
 Epot (accurate SCC):  -152.101010220425     
 Ekin               :  6.370953577950328E-002
 Etot               :  -152.037137326240     
 T                  :   298.042318178719     
 corrections to Re Z-matrix:
   1  C     0.000000      0.0000      0.0000     0    0    0
   2  C    -0.064402      0.0000      0.0000     1    0    0
   3  C    -0.078566      0.5850      0.0000     2    1    0
   4  C    -0.069281     -0.5675     -1.5920     1    2    3
   5  C    -0.000000     -0.4375     -1.1846     1    2    3
   6  C    -0.000000     -0.4470     -0.4229     2    1    3
   7  C    -0.000000      0.2258      1.8138     3    2    1
   8  C    -0.000000     -0.0817      1.3192     4    1    2
   9  N    -0.000000     -0.1397    -10.4738     5    1    2
  10  N    -0.000000     -0.0612      8.4095     6    2    1
  11  N    -0.000000     -0.1204     -9.8736     7    3    2
  12  N    -0.000000     -0.0518      8.1034     8    4    1
  13  N    -0.000000     -8.6213     -7.1860     1    2    3
  14  N    -0.000000      4.2489     -7.6016     2    1    3
  15  N    -0.000000     -4.5702     10.4697     3    2    1
  16  N    -0.000000      6.9758      5.6333     4    1    2
  17  C    -0.000000     -0.8037      4.6888     9    5    1
  18  C    -0.000000     -0.5468      2.8064    10    6    2
  19  C    -0.000000     -0.8274      4.5225    11    7    3
  20  C    -0.000000     -0.5825      3.0225    12    8    4
  21  O    -0.000000     -0.2488     -3.1506    17    9    5
  22  O    -0.000000     -0.3899      2.2349    18   10    6
  23  O    -0.000000     -0.0626     -3.1169    19   11    7
  24  O    -0.000000     -0.3545      1.3126    20   12    8
  25  C    -0.000000     -1.5114    -16.6853     9    5    1
  26  C    -0.000000     -3.1286     12.6071    10    6    2
  27  C    -0.000000     -1.3095    -16.7760    11    7    3
  28  C    -0.000000     -2.6413     11.9335    12    8    4
  29  H    -0.000000      0.4857     18.9121    25    9    5
  30  H    -0.000000      0.6050    -16.5359    26   10    6
  31  H    -0.000000      0.3463     19.0395    27   11    7
  32  H    -0.000000      0.7817    -15.5557    28   12    8
  33  H    -0.000000      1.1220     15.7900    25    9    5
  34  H    -0.000000     -1.3168    -18.2637    26   10    6
  35  H    -0.000000      1.0870     16.0467    27   11    7
  36  H    -0.000000     -1.3497    -17.4086    28   12    8
  37  H    -0.000000      0.4570     -9.0067     5    1    2
  38  H    -0.000000      0.8615      9.7535     6    2    1
  39  H    -0.000000      0.3523     -8.6473     7    3    2
  40  H    -0.000000      0.7223      9.2259     8    4    1
  41  H    -0.000000     -0.9250    -11.4233     1    2    3
  42  H    -0.000000     -0.6669    -15.9311     2    1    3
  43  H    -0.000000     -0.1760     15.3892     3    2    1
  44  H    -0.000000     -1.7480     11.6494     4    1    2
  45  N    -0.000000      0.0833     -8.1054     5    1    2
  46  N    -0.000000     -0.6302     12.6243     6    2    1
  47  N    -0.000000      0.1049     -8.0064     7    3    2
  48  N    -0.000000     -0.4612     11.7245     8    4    1
  49  N    -0.000000      7.1223     -5.9311     1    2    3
  50  N    -0.000000     -5.6483    -11.5070     2    1    3
  51  N    -0.000000      3.6256      8.2025     3    2    1
  52  N    -0.000000     -9.5140      9.0560     4    1    2
  53  C    -0.000000     -0.9110      0.7936    45    5    1
  54  C    -0.000000     -0.0225      0.0594    46    6    2
  55  C    -0.000000     -0.9383      1.4581    47    7    3
  56  C    -0.000000     -0.3762     -1.9702    48    8    4
  57  O    -0.000000     -0.8631      1.0325    53   45    5
  58  O    -0.000000     -3.4208     21.0912    54   46    6
  59  O    -0.000000     -0.5757      0.8352    55   47    7
  60  O    -0.000000     -2.2407     17.4709    56   48    8
  61  C    -0.000000     -1.8874    -14.3427    45    5    1
  62  C    -0.000000     -3.2348     21.5408    46    6    2
  63  C    -0.000000     -2.2809    -15.6516    47    7    3
  64  C    -0.000000     -2.7568     19.6178    48    8    4
  65  H    -0.000000      1.0143     18.1325    61   45    5
  66  H    -0.000000      1.2217    -20.1121    62   46    6
  67  H    -0.000000      0.9883     19.8957    63   47    7
  68  H    -0.000000      1.0856    -18.8316    64   48    8
  69  H    -0.000000     -1.5739     20.2307    61   45    5
  70  H    -0.000000      0.5126    -17.9049    62   46    6
  71  H    -0.000000     -1.4082     22.2329    63   47    7
  72  H    -0.000000      0.5121    -16.1253    64   48    8
  73  F     0.415576     -4.7894    -10.9162    53   45    5
Be      (a,b,c, in MHz) :     92.672     92.672     82.509
Be - B0 (a,b,c, in MHz) :     -2.744     -2.061     -1.625
 corrected structure on <xtb_mdav.coord>
 normal exit of md()
 
speedup  8.18
cpu  time for all   20 h 52 m  9.3 s
wall time for all    2 h 33 m  7.0 s
