 
        ______________________________________
       |                                      |
       |           ==================         |
       |                 x T B                |
       |           ==================         |
       |               S. Grimme              |
       |        Universitaet Bonn, MCTC       |
       |         2015-18, Version 5.0         |
       |      Sat Jan 20 11:00:33 CET 2018    |
       |______________________________________|
 
        This code comes without any warranty
        for non-commercial, academia use only.
        Cite GFN-xTB work as:
        S. Grimme, C. Bannwarth, P. Shushkov
        JCTC, 13 (2017) 1989-2009
        for GFN2:
        C. Bannwarth, S. Ehlert, S. Grimme
        to be published.
        sTDA-xTB:
        S. Grimme  &  C. Bannwarth, JCP 145 (2016) 054103
        in the mass-spec context additionally:
        V. Asgeirsson, C.Bauer, S. Grimme, Chem. Sci. 8 (2017) 4879
 
        with help from
        P. Shushkov, G. Brandenburg, S. Dohm, J. Pisarek,
        F. März, M. Checinski, S. Ehrlich, S. Spicher, 
        P. Pracht, E. Caldeweyher, S. Ehlert, and C. Bannwarth.
 
        usage        :
        xtb <coord_file> [options]
        where <coord_file> is a valid file of TM)
        (*coord, Bohr) or xmol (*xyz, Angstroem)
        format.

        options:
        -chrg <int>   : molecular charge
        -uhf  <int>   : # of unpaired electrons(=2*S)
        -nox          : skip second, extended part in sTDA-xTB
        -pop          : do population analysis
                      : (default for -nox)
        -mowr <real>  : cut MO write above (def.3 Eh)
        -molden       : write formatted molden file
        -parx <file>  : read parameters for sTDA-xTB
                        calc (def:~/.param_stda2.xtb)
        -parv <file>  : read parameters for vTB part in
                        sTDA-xTB (def: ~/.param_stda1.xtb)
        -xtemp <real> : el. temp for xTB (def. 0 K)
        -etemp <real> : el. temp for GFN (def. 300 K)
        -fod          : do a xTB calc. of the FOD
                        and write molden.input file 
                        with appropriate occupations
                        for plotting. Def. T=12500 K
 
        -gfn          : use GFN-xTB
        -grad         : GFN-xTB gradient
        -acc <real>   : GFN-xTB accuracy (def. 1.0)
        -opt [level]  : optimize at GFN-xTB
                      : level=crude,vloose,loose,
                      :       tight,vtight
        -hess         : compute Hessian at GFN-xTB
        -ohess        : optimize and compute Hessian
        -omd          : optimize and do MD
        -siman        : conformational search
        -screen       : opt. loop over ensemble
        -gmd          : annealed MD for GMD procedure
        -modef        : vib mode following
        -gbsa [string1] [string2]
                        use GBSA implicit solvent
                        for solvent [string1] and
                        solvation state [string2]=
                        reference, bar1M (default=1M)
        additional GFN/opt/MD/siman options read from
        $XTBHOME/.xtbrc or $set in coordinate file
 
       spin and charge state information can be on:
       <.CHRG> (charge) and <.UHF> (=nalpha-nbeta)
       -uhf and -chrg override the file info.
       useful machine settings:
       setenv MKL_NUM_THREADS <NCORE_ON_YOUR_MACHINE>
       setenv OMP_STACKSIZE 500m
       limit stacksize unlimited
 
       total energies in Eh, gaps/HL energies in eV
       please read REVISION and HOWTO files carefully
 =============================
  # OMP threads =                     1
 =============================
 
 xtbhome directory:/Applications/xtb/
 
 argument                      1 :-opt
 argument                      2 :tight
 
 number of atoms            :    89
 number of electrons        :   290
 charge                     :  0
 spin                       : 0.0
 first test random number   :  0.6312
 
 
KAB for pair M(3d)-M(3d) :  1.1000
KAB for pair M(4d)-M(4d) :  1.2000
KAB for pair M(5d)-M(5d) :  1.2000
 -----------------------------------------
  G F N (Geometry, Frequency, Non-covalent)
        parametrization, version                     2
 /Applications/xtb/.param_gfn2.xtb
 -----------------------------------------
      method parameters     
 k(s)        :  1.8500
 k(p)        :  2.2500
 k(d)        :  2.0000
 k(f)        :  0.0000
 alphaj      :  1.0000
 kEN (H0ij)  : -2.3620
 D3 a1       :  0.6900
 D3 a2       :  4.0530
 D3 s8       :  2.0000
 D3atm       :  1.0000
 AESdamp     :  5.5000
 AESrad      :  1.9230
 expscalexp  : -0.2500
 
     -------------------------
     ! NO SOLVENT MODEL USED !
     -------------------------
 
 doing EN charges ...
 sum q :  0.5329071D-14
 point charge moment (au)
     X       Y       Z   
   0.0000  -0.0000   0.0000  total (Debye):    0.000
 
            Z      q(EN)   CN      Cart. coordinates
     1  C   4.0    0.18    4.49    -6.04489    -3.01551     0.00000
     2  C   4.0    0.18    4.49     3.01551    -6.04489     0.00000
     3  C   4.0    0.18    4.49     6.04489     3.01551     0.00000
     4  C   4.0    0.18    4.49    -3.01551     6.04489     0.00000
     5  C   4.0    0.18    4.49    -6.75380    -0.14712     0.00000
     6  C   4.0    0.18    4.49     0.14712    -6.75380     0.00000
     7  C   4.0    0.18    4.49     6.75380     0.14712     0.00000
     8  C   4.0    0.18    4.49    -0.14712     6.75380     0.00000
     9  N   5.0   -0.21    3.23    -5.73891     0.78220    -2.34041
    10  N   5.0   -0.21    3.23    -0.78220    -5.73891    -2.34041
    11  N   5.0   -0.21    3.23     5.73891    -0.78220    -2.34041
    12  N   5.0   -0.21    3.23     0.78220     5.73891     2.34041
    13  N   5.0   -0.21    3.23    -5.73891     0.78220     2.34041
    14  N   5.0   -0.21    3.23    -0.78220    -5.73891     2.34041
    15  N   5.0   -0.21    3.23     5.73891    -0.78220     2.34041
    16  N   5.0   -0.21    3.23     0.78220     5.73891    -2.34041
    17  N   5.0   -0.21    3.23    -4.71481    -3.36596    -2.34165
    18  N   5.0   -0.21    3.23     3.36596    -4.71481    -2.34165
    19  N   5.0   -0.21    3.23     4.71481     3.36596    -2.34165
    20  N   5.0   -0.21    3.23    -3.36596     4.71481     2.34165
    21  N   5.0   -0.21    3.23    -4.71481    -3.36596     2.34165
    22  N   5.0   -0.21    3.23     3.36596    -4.71481     2.34165
    23  N   5.0   -0.21    3.23     4.71481     3.36596     2.34165
    24  N   5.0   -0.21    3.23    -3.36596     4.71481    -2.34165
    25  C   4.0    0.43    3.27    -4.72426    -1.16715    -3.81917
    26  C   4.0    0.43    3.27     1.16715    -4.72426    -3.81917
    27  C   4.0    0.43    3.27     4.72426     1.16715    -3.81917
    28  C   4.0    0.43    3.27    -1.16715     4.72426     3.81917
    29  C   4.0    0.43    3.27    -4.72426    -1.16715     3.81917
    30  C   4.0    0.43    3.27     1.16715    -4.72426     3.81917
    31  C   4.0    0.43    3.27     4.72426     1.16715     3.81917
    32  C   4.0    0.43    3.27    -1.16715     4.72426    -3.81917
    33  O   6.0   -0.34    1.06    -4.05422    -1.00006    -5.99485
    34  O   6.0   -0.34    1.06     1.00006    -4.05422    -5.99485
    35  O   6.0   -0.34    1.06     4.05422     1.00006    -5.99485
    36  O   6.0   -0.34    1.06    -1.00006     4.05422     5.99485
    37  O   6.0   -0.34    1.06    -4.05422    -1.00006     5.99485
    38  O   6.0   -0.34    1.06     1.00006    -4.05422     5.99485
    39  O   6.0   -0.34    1.06     4.05422     1.00006     5.99485
    40  O   6.0   -0.34    1.06    -1.00006     4.05422    -5.99485
    41  C   4.0    0.25    4.13    -5.61226     3.38771    -3.16659
    42  C   4.0    0.25    4.13    -3.38771    -5.61226    -3.16659
    43  C   4.0    0.25    4.13     5.61226    -3.38771    -3.16659
    44  C   4.0    0.25    4.13     3.38771     5.61226     3.16659
    45  C   4.0    0.25    4.13    -5.61226     3.38771     3.16659
    46  C   4.0    0.25    4.13    -3.38771    -5.61226     3.16659
    47  C   4.0    0.25    4.13     5.61226    -3.38771     3.16659
    48  C   4.0    0.25    4.13     3.38771     5.61226    -3.16659
    49  H   1.0   -0.05    1.00    -7.29170     4.40181    -2.50608
    50  H   1.0   -0.05    1.00    -4.40181    -7.29170    -2.50608
    51  H   1.0   -0.05    1.00     7.29170    -4.40181    -2.50608
    52  H   1.0   -0.05    1.00     4.40181     7.29170     2.50608
    53  H   1.0   -0.05    1.00    -7.29170     4.40181     2.50608
    54  H   1.0   -0.05    1.00    -4.40181    -7.29170     2.50608
    55  H   1.0   -0.05    1.00     7.29170    -4.40181     2.50608
    56  H   1.0   -0.05    1.00     4.40181     7.29170    -2.50608
    57  H   1.0   -0.05    1.01    -5.57378     3.36209    -5.23229
    58  H   1.0   -0.05    1.01    -3.36209    -5.57378    -5.23229
    59  H   1.0   -0.05    1.01     5.57378    -3.36209    -5.23229
    60  H   1.0   -0.05    1.01     3.36209     5.57378     5.23229
    61  H   1.0   -0.05    1.01    -5.57378     3.36209     5.23229
    62  H   1.0   -0.05    1.01    -3.36209    -5.57378     5.23229
    63  H   1.0   -0.05    1.01     5.57378    -3.36209     5.23229
    64  H   1.0   -0.05    1.01     3.36209     5.57378    -5.23229
    65  C   4.0    0.11    4.20    -9.62872    -0.85444     0.00000
    66  C   4.0    0.11    4.20     0.85444    -9.62872     0.00000
    67  C   4.0    0.11    4.20     9.62872     0.85444     0.00000
    68  C   4.0    0.11    4.20    -0.85444     9.62872     0.00000
    69  H   1.0   -0.06    1.00   -10.63532    -0.22304    -1.68805
    70  H   1.0   -0.06    1.00     0.22304   -10.63532    -1.68805
    71  H   1.0   -0.06    1.00    10.63532     0.22304    -1.68805
    72  H   1.0   -0.06    1.00    -0.22304    10.63532     1.68805
    73  H   1.0   -0.06    1.00   -10.63532    -0.22304     1.68805
    74  H   1.0   -0.06    1.00     0.22304   -10.63532     1.68805
    75  H   1.0   -0.06    1.00    10.63532     0.22304     1.68805
    76  H   1.0   -0.06    1.00    -0.22304    10.63532    -1.68805
    77  C   4.0    0.11    4.20    -8.91828    -3.72841     0.00000
    78  C   4.0    0.11    4.20     3.72841    -8.91828     0.00000
    79  C   4.0    0.11    4.20     8.91828     3.72841     0.00000
    80  C   4.0    0.11    4.20    -3.72841     8.91828     0.00000
    81  H   1.0   -0.06    1.00    -9.51377    -4.75650    -1.68796
    82  H   1.0   -0.06    1.00     4.75650    -9.51377    -1.68796
    83  H   1.0   -0.06    1.00     9.51377     4.75650    -1.68796
    84  H   1.0   -0.06    1.00    -4.75650     9.51377     1.68796
    85  H   1.0   -0.06    1.00    -9.51377    -4.75650     1.68796
    86  H   1.0   -0.06    1.00     4.75650    -9.51377     1.68796
    87  H   1.0   -0.06    1.00     9.51377     4.75650     1.68796
    88  H   1.0   -0.06    1.00    -4.75650     9.51377    -1.68796
    89  HE  2.0   -0.01    0.01     0.00000     0.00000     0.00000
 
  Z AO/shell   Hii/eV     exponent
  1     Sat Jan 20 17:55:17 CET 2018    EN: 2.200 GAM: 0.531  GM3:-0.4370
     1s    -10.248275    1.266496
  2     Sun Jan 21 00:02:32 CET 2018    EN: 3.000 GAM: 0.420  GM3:-0.3880
     1s    -20.299815    1.657029
     2p      1.788682    1.820207
  6     Sat Jan 20 17:55:17 CET 2018    EN: 2.550 GAM: 0.417  GM3:-0.0654
     2s    -15.292509    2.030071
     2p    -10.408465    1.801676
  7     Sat Jan 20 17:55:17 CET 2018    EN: 3.040 GAM: 0.444  GM3:-0.1301
     2s    -16.687725    2.226550
     2p    -13.175143    1.981921
  8     Sat Jan 20 17:55:17 CET 2018    EN: 3.440 GAM: 0.468  GM3: 0.0937
     2s    -20.924998    2.442614
     2p    -15.243501    2.233841
 no old-style atom pair restraing (fixing) potential
 
 molecular fragmentation (1/2 indicates fragments):
11111111111111111111111111111111111111111111111111111111111111111111111111111111
111111112
# atoms in fragment 1/2:    88     1
 fragment masses (1/2) :      768.71        4.00
CMA distance (Bohr)    :   0.000
constraining FC (au)   :  0.0500
 
             =======================================
             |                                     |
             |        S C C  calculation           |
             |                                     |
             =======================================
 #proc     :                      1
 Ncao      :                    260
 Nao       :                    260
 Nel       :                    290
 T(el)     :   300.0
 intcut    :    25.0
 scfconv   :  0.100E-05
   qconv   :  0.200E-04
 intneglect:  0.100E-07
 broydamp  :      0.400
 Nshell    :                    146
 iter      E             dE          RMSdq      gap      omega  full diag
   1   -171.3670907 -0.171367E+03  0.988E+00    4.67       0.0  T
   2   -172.0750563 -0.707966E+00  0.537E+00    4.91       1.0  T
   3   -172.0502333  0.248230E-01  0.212E+00    4.37       1.0  T
   4   -172.1674446 -0.117211E+00  0.560E-01    4.99       1.0  T
   5   -172.1795626 -0.121179E-01  0.223E-01    4.86       1.0  T
   6   -172.1803917 -0.829140E-03  0.862E-02    4.89       1.0  T
   7   -172.1805508 -0.159036E-03  0.346E-02    4.86       1.0  T
   8   -172.1805883 -0.375713E-04  0.161E-02    4.88       1.0  T
   9   -172.1806077 -0.193790E-04  0.536E-03    4.87       2.0  T
  10   -172.1806069  0.820207E-06  0.467E-03    4.87       2.3  T
  11   -172.1806085 -0.156468E-05  0.737E-04    4.87      14.4  T
  12   -172.1806085 -0.126246E-07  0.402E-04    4.87      26.4  T
  13   -172.1806085 -0.100931E-07  0.142E-04    4.87      74.6  T
  14   -172.1806085 -0.158880E-08  0.190E-05    4.87     558.4  T
speedup  6.46
cpu  time for SCC    3.92 s
wall time for SCC    0.61 s

          eigenvalues
 #    :         133        134        135        136        137        138        139        140
 occ. :        2.000      2.000      2.000      2.000      2.000      2.000      2.000      2.000
 eps  :       -10.424    -10.410    -10.410    -10.391    -10.382    -10.205    -10.205    -10.202
 #    :         141        142        143        144        145        146        147        148
 occ. :        2.000      2.000      2.000      2.000      2.000      0.000      0.000      0.000
 eps  :       -10.065    -10.056     -9.990     -9.990     -9.870     -4.997     -4.911     -4.792
 #    :         149        150        151        152        153        154        155        156
 occ. :        0.000      0.000      0.000      0.000      0.000      0.000      0.000      0.000
 eps  :        -4.792     -4.719     -4.719     -4.614     -4.597     -1.265     -1.261     -1.261
 
 
 Mulliken/CM5 charges        n(s)   n(p)   n(d)
     1 C   0.08041  0.20310   1.088  2.831  0.000
     2 C   0.08041  0.20310   1.088  2.831  0.000
     3 C   0.08041  0.20310   1.088  2.831  0.000
     4 C   0.08041  0.20310   1.088  2.831  0.000
     5 C   0.08050  0.20330   1.088  2.831  0.000
     6 C   0.08050  0.20330   1.088  2.831  0.000
     7 C   0.08050  0.20330   1.088  2.831  0.000
     8 C   0.08050  0.20330   1.088  2.831  0.000
     9 N  -0.04516 -0.27321   1.138  3.907  0.000
    10 N  -0.04516 -0.27321   1.138  3.907  0.000
    11 N  -0.04516 -0.27321   1.138  3.907  0.000
    12 N  -0.04516 -0.27321   1.138  3.907  0.000
    13 N  -0.04516 -0.27321   1.138  3.907  0.000
    14 N  -0.04516 -0.27321   1.138  3.907  0.000
    15 N  -0.04516 -0.27321   1.138  3.907  0.000
    16 N  -0.04516 -0.27321   1.138  3.907  0.000
    17 N  -0.04521 -0.27314   1.138  3.907  0.000
    18 N  -0.04521 -0.27314   1.138  3.907  0.000
    19 N  -0.04521 -0.27314   1.138  3.907  0.000
    20 N  -0.04521 -0.27314   1.138  3.907  0.000
    21 N  -0.04521 -0.27314   1.138  3.907  0.000
    22 N  -0.04521 -0.27314   1.138  3.907  0.000
    23 N  -0.04521 -0.27314   1.138  3.907  0.000
    24 N  -0.04521 -0.27314   1.138  3.907  0.000
    25 C   0.23000  0.39462   1.065  2.705  0.000
    26 C   0.23000  0.39462   1.065  2.705  0.000
    27 C   0.23000  0.39462   1.065  2.705  0.000
    28 C   0.23000  0.39462   1.065  2.705  0.000
    29 C   0.23000  0.39462   1.065  2.705  0.000
    30 C   0.23000  0.39462   1.065  2.705  0.000
    31 C   0.23000  0.39462   1.065  2.705  0.000
    32 C   0.23000  0.39462   1.065  2.705  0.000
    33 O  -0.39169 -0.43179   1.733  4.659  0.000
    34 O  -0.39169 -0.43179   1.733  4.659  0.000
    35 O  -0.39169 -0.43179   1.733  4.659  0.000
    36 O  -0.39169 -0.43179   1.733  4.659  0.000
    37 O  -0.39169 -0.43179   1.733  4.659  0.000
    38 O  -0.39169 -0.43179   1.733  4.659  0.000
    39 O  -0.39169 -0.43179   1.733  4.659  0.000
    40 O  -0.39169 -0.43179   1.733  4.659  0.000
    41 C   0.03399  0.05661   1.073  2.893  0.000
    42 C   0.03399  0.05661   1.073  2.893  0.000
    43 C   0.03399  0.05661   1.073  2.893  0.000
    44 C   0.03399  0.05661   1.073  2.893  0.000
    45 C   0.03399  0.05661   1.073  2.893  0.000
    46 C   0.03399  0.05661   1.073  2.893  0.000
    47 C   0.03399  0.05661   1.073  2.893  0.000
    48 C   0.03399  0.05661   1.073  2.893  0.000
    49 H   0.03890  0.11598   0.961  0.000  0.000
    50 H   0.03890  0.11598   0.961  0.000  0.000
    51 H   0.03890  0.11598   0.961  0.000  0.000
    52 H   0.03890  0.11598   0.961  0.000  0.000
    53 H   0.03890  0.11598   0.961  0.000  0.000
    54 H   0.03890  0.11598   0.961  0.000  0.000
    55 H   0.03890  0.11598   0.961  0.000  0.000
    56 H   0.03890  0.11598   0.961  0.000  0.000
    57 H   0.07206  0.15848   0.928  0.000  0.000
    58 H   0.07206  0.15848   0.928  0.000  0.000
    59 H   0.07206  0.15848   0.928  0.000  0.000
    60 H   0.07206  0.15848   0.928  0.000  0.000
    61 H   0.07206  0.15848   0.928  0.000  0.000
    62 H   0.07206  0.15848   0.928  0.000  0.000
    63 H   0.07206  0.15848   0.928  0.000  0.000
    64 H   0.07206  0.15848   0.928  0.000  0.000
    65 C  -0.04538 -0.13711   1.083  2.963  0.000
    66 C  -0.04538 -0.13711   1.083  2.963  0.000
    67 C  -0.04538 -0.13711   1.083  2.963  0.000
    68 C  -0.04538 -0.13711   1.083  2.963  0.000
    69 H   0.03593  0.09379   0.964  0.000  0.000
    70 H   0.03593  0.09379   0.964  0.000  0.000
    71 H   0.03593  0.09379   0.964  0.000  0.000
    72 H   0.03593  0.09379   0.964  0.000  0.000
    73 H   0.03593  0.09379   0.964  0.000  0.000
    74 H   0.03593  0.09379   0.964  0.000  0.000
    75 H   0.03593  0.09379   0.964  0.000  0.000
    76 H   0.03593  0.09379   0.964  0.000  0.000
    77 C  -0.04538 -0.13712   1.083  2.963  0.000
    78 C  -0.04538 -0.13712   1.083  2.963  0.000
    79 C  -0.04538 -0.13712   1.083  2.963  0.000
    80 C  -0.04538 -0.13712   1.083  2.963  0.000
    81 H   0.03596  0.09384   0.964  0.000  0.000
    82 H   0.03596  0.09384   0.964  0.000  0.000
    83 H   0.03596  0.09384   0.964  0.000  0.000
    84 H   0.03596  0.09384   0.964  0.000  0.000
    85 H   0.03596  0.09384   0.964  0.000  0.000
    86 H   0.03596  0.09384   0.964  0.000  0.000
    87 H   0.03596  0.09384   0.964  0.000  0.000
    88 H   0.03596  0.09384   0.964  0.000  0.000
    89 HE  0.00109 -0.01001   2.000 -0.001  0.000
 
 Wiberg/Mayer (AO) data. WBOs > 0.1 written file <wbo>
 largest (>0.05) Wiberg bond orders for each atom
           total WBO             WBO to atom ...
     1  C   3.961    N   17 0.995    N   21 0.995    C   77 0.945    C    5 0.927
     2  C   3.961    N   18 0.995    N   22 0.995    C   78 0.945    C    6 0.927
     3  C   3.961    N   23 0.995    N   19 0.995    C   79 0.945    C    7 0.927
     4  C   3.961    N   24 0.995    N   20 0.995    C   80 0.945    C    8 0.927
     5  C   3.961    N   13 0.995    N    9 0.995    C   65 0.945    C    1 0.927
     6  C   3.961    N   14 0.995    N   10 0.995    C   66 0.945    C    2 0.927
     7  C   3.961    N   15 0.995    N   11 0.995    C   67 0.945    C    3 0.927
     8  C   3.961    N   16 0.995    N   12 0.995    C   68 0.945    C    4 0.927
     9  N   3.416    C   25 1.092    C    5 0.995    C   41 0.994    O   33 0.150
    10  N   3.416    C   26 1.092    C    6 0.995    C   42 0.994    O   34 0.150
    11  N   3.416    C   27 1.092    C    7 0.995    C   43 0.994    O   35 0.150
    12  N   3.416    C   28 1.092    C    8 0.995    C   44 0.994    O   36 0.150
    13  N   3.416    C   29 1.092    C    5 0.995    C   45 0.994    O   37 0.150
    14  N   3.416    C   30 1.092    C    6 0.995    C   46 0.994    O   38 0.150
    15  N   3.416    C   31 1.092    C    7 0.995    C   47 0.994    O   39 0.150
    16  N   3.416    C   32 1.092    C    8 0.995    C   48 0.994    O   40 0.150
    17  N   3.416    C   25 1.091    C    1 0.995    C   42 0.994    O   33 0.150
    18  N   3.416    C   26 1.091    C    2 0.995    C   43 0.994    O   34 0.150
    19  N   3.416    C   27 1.091    C    3 0.995    C   48 0.994    O   35 0.150
    20  N   3.416    C   28 1.091    C    4 0.995    C   45 0.994    O   36 0.150
    21  N   3.416    C   29 1.091    C    1 0.995    C   46 0.994    O   37 0.150
    22  N   3.416    C   30 1.091    C    2 0.995    C   47 0.994    O   38 0.150
    23  N   3.416    C   31 1.091    C    3 0.995    C   44 0.994    O   39 0.150
    24  N   3.416    C   32 1.091    C    4 0.995    C   41 0.994    O   40 0.150
    25  C   3.962    O   33 1.712    N    9 1.092    N   17 1.091
    26  C   3.962    O   34 1.712    N   10 1.092    N   18 1.091
    27  C   3.962    O   35 1.712    N   11 1.092    N   19 1.091
    28  C   3.962    O   36 1.712    N   12 1.092    N   20 1.091
    29  C   3.962    O   37 1.712    N   13 1.092    N   21 1.091
    30  C   3.962    O   38 1.712    N   14 1.092    N   22 1.091
    31  C   3.962    O   39 1.712    N   15 1.092    N   23 1.091
    32  C   3.962    O   40 1.712    N   16 1.092    N   24 1.091
    33  O   2.070    C   25 1.712    N    9 0.150    N   17 0.150
    34  O   2.070    C   26 1.712    N   10 0.150    N   18 0.150
    35  O   2.070    C   27 1.712    N   11 0.150    N   19 0.150
    36  O   2.070    C   28 1.712    N   12 0.150    N   20 0.150
    37  O   2.070    C   29 1.712    N   13 0.150    N   21 0.150
    38  O   2.070    C   30 1.712    N   14 0.150    N   22 0.150
    39  O   2.070    C   31 1.712    N   15 0.150    N   23 0.150
    40  O   2.070    C   32 1.712    N   16 0.150    N   24 0.150
    41  C   3.969    N   24 0.994    N    9 0.994    H   49 0.966    H   57 0.960
    42  C   3.969    N   17 0.994    N   10 0.994    H   50 0.966    H   58 0.960
    43  C   3.969    N   18 0.994    N   11 0.994    H   51 0.966    H   59 0.960
    44  C   3.969    N   23 0.994    N   12 0.994    H   52 0.966    H   60 0.960
    45  C   3.969    N   20 0.994    N   13 0.994    H   53 0.966    H   61 0.960
    46  C   3.969    N   21 0.994    N   14 0.994    H   54 0.966    H   62 0.960
    47  C   3.969    N   22 0.994    N   15 0.994    H   55 0.966    H   63 0.960
    48  C   3.969    N   19 0.994    N   16 0.994    H   56 0.966    H   64 0.960
    49  H   0.998    C   41 0.966
    50  H   0.998    C   42 0.966
    51  H   0.998    C   43 0.966
    52  H   0.998    C   44 0.966
    53  H   0.998    C   45 0.966
    54  H   0.998    C   46 0.966
    55  H   0.998    C   47 0.966
    56  H   0.998    C   48 0.966
    57  H   0.994    C   41 0.960
    58  H   0.994    C   42 0.960
    59  H   0.994    C   43 0.960
    60  H   0.994    C   44 0.960
    61  H   0.994    C   45 0.960
    62  H   0.994    C   46 0.960
    63  H   0.994    C   47 0.960
    64  H   0.994    C   48 0.960
    65  C   3.987    C   77 1.001    H   73 0.982    H   69 0.982    C    5 0.945
    66  C   3.987    C   78 1.001    H   74 0.982    H   70 0.982    C    6 0.945
    67  C   3.987    C   79 1.001    H   75 0.982    H   71 0.982    C    7 0.945
    68  C   3.987    C   80 1.001    H   72 0.982    H   76 0.982    C    8 0.945
    69  H   0.998    C   65 0.982
    70  H   0.998    C   66 0.982
    71  H   0.998    C   67 0.982
    72  H   0.998    C   68 0.982
    73  H   0.998    C   65 0.982
    74  H   0.998    C   66 0.982
    75  H   0.998    C   67 0.982
    76  H   0.998    C   68 0.982
    77  C   3.987    C   65 1.001    H   81 0.982    H   85 0.982    C    1 0.945
    78  C   3.987    C   66 1.001    H   82 0.982    H   86 0.982    C    2 0.945
    79  C   3.987    C   67 1.001    H   83 0.982    H   87 0.982    C    3 0.945
    80  C   3.987    C   68 1.001    H   88 0.982    H   84 0.982    C    4 0.945
    81  H   0.998    C   77 0.982
    82  H   0.998    C   78 0.982
    83  H   0.998    C   79 0.982
    84  H   0.998    C   80 0.982
    85  H   0.998    C   77 0.982
    86  H   0.998    C   78 0.982
    87  H   0.998    C   79 0.982
    88  H   0.998    C   80 0.982
    89  HE -0.002
 density
 
 cube file module (SG, 7/16)
 cube_pthr     :   0.005
 cube_step     :   0.400
 non-zero P (%):  27.035   nmat:    9173
 Grid Boundaries (x y z) :
   13.6353209508663        13.6353209508663        8.99485321799353     
  -13.6353209508663       -13.6353209508663       -8.99485321799353     
 Total # of points                214245
 writing density.cub
 N    (numint) : ******
cpu  time for cube    1 m  3.2 s
wall time for cube    1 m  2.2 s
 
molecular dipole:
                 x           y           z       tot (Debye)
 q only:        0.000      -0.000      -0.000
   full:        0.000      -0.000      -0.000       0.000
molecular quadrupole (traceless):
                xx          xy          yy          xz          yz          zz
 q only:       54.790       0.000      54.790      -0.000       0.000    -109.580
  q+dip:       61.516       0.000      61.516      -0.000       0.000    -123.031
   full:       64.049       0.000      64.049      -0.000       0.000    -128.098
 SCC converged in                     14  cycles
 
SCC energy    :    -172.1806085
rep           :       1.7094312
ES            :      -0.0194246
AES           :       0.0168341
disp          :      -0.1300948
XB            :       0.0000000
fix           :       0.0000000
total E       :    -170.6012720
atomizationE  :      23.5153646    14756.12
(atE without considerung molecular charge,
 total energy contains solvation terms)
H-L gap (eV)  :          4.8737
 
             =======================================
             |                                     |
             |    Approximate Normal Coordinate    |
             |   Rational Function Optimization    |
             |                                     |
             =======================================
Ref. for RF algo: F.Eckert, P.Pulay, H.-J.Werner
                  J.Comput.Chem. 18 (1997) 1473.
ANC idea implemented by S. Grimme in the 2000ers (unpublished)
restraining potential by S. Ehrlich.
dumping coords to <xtbopt.coord> and <xtbopt.log
 optlevel                         1
 Maxcycle                       445
 Maxmicro                        20
 Econv         1.000000000000000E-006
 Gconv         8.000000000000000E-004
 Maxdispl       1.00000000000000     
 Hlow          4.000000000000000E-003
 S6             20.0000000000000     
 Nvar                        261

generating ANC from model Hessian ...
 Shifting diagonal of input Hessian by   3.556442549655324E-003
 Lowest  eigenvalues of input Hessian
   -0.000000   -0.000000    0.000000    0.000000    0.000000    0.000000
    0.004000    0.004841    0.004841    0.005712    0.005952    0.006422
    0.007045    0.009618    0.009618    0.009946    0.009946    0.009966
 Highest eigenvalues
    2.437237    2.438859    2.441257    2.443356    2.443356    2.447787
 
cpu  time for ANC gen    0.35 s
wall time for ANC gen    0.21 s
................................................................................
.............................. CYCLE    1 ......................................
................................................................................
  q data taken from xtbrestart
  CAMM data taken from xtbrestart
   1   -172.1806085 -0.172181E+03  0.169E-05    4.87       0.0  T
   2   -172.1806085 -0.203784E-10  0.828E-06    4.87    1280.6  T
   3   -172.1806085 -0.363798E-11  0.443E-06    4.87    2390.1  T
speedup  8.38
cpu  time for SCC    1.92 s
wall time for SCC    0.23 s
speedup  7.11
cpu  time for grad    1.61 s
wall time for grad    0.23 s
 E :   -170.60127205  G :  0.088781    pred/act E change:  0.000D+00 -0.264D-10
Maxdispl :   0.1816   ||displ|| :   0.3975   Lambda : -0.182D-01
Largest |displ|/coords:  0.1816 (  22)  0.1550 (  68)  0.1519 (  26)
................................................................................
.............................. CYCLE    2 ......................................
................................................................................
   1   -172.2655987 -0.172266E+03  0.117E-01    5.00       0.0  T
   2   -172.2656922 -0.934865E-04  0.681E-02    4.98       1.0  T
   3   -172.2656700  0.221908E-04  0.342E-02    5.00       1.0  T
   4   -172.2657303 -0.602464E-04  0.516E-03    4.99       2.1  T
   5   -172.2657308 -0.576024E-06  0.276E-03    4.99       3.8  T
   6   -172.2657310 -0.183108E-06  0.886E-04    4.99      12.0  T
   7   -172.2657310 -0.117492E-07  0.267E-04    4.99      39.7  T
speedup  8.82
cpu  time for SCC    3.00 s
wall time for SCC    0.34 s
speedup  6.86
cpu  time for grad    1.37 s
wall time for grad    0.20 s
 E :   -170.61354235  G :  0.029866    pred/act E change:  0.000D+00 -0.123D-01
Maxdispl :   0.2313   ||displ|| :   0.3720   Lambda : -0.524D-02
Largest |displ|/coords:  0.2313 (  26)  0.2043 (  22)  0.1486 (  68)
................................................................................
.............................. CYCLE    3 ......................................
................................................................................
   1   -172.3077417 -0.172308E+03  0.104E-01    5.02       0.0  T
   2   -172.3078242 -0.824845E-04  0.579E-02    5.04       1.0  T
   3   -172.3078239  0.320327E-06  0.174E-02    5.04       1.0  T
   4   -172.3078379 -0.140115E-04  0.489E-03    5.04       2.2  T
   5   -172.3078384 -0.496325E-06  0.175E-03    5.04       6.1  T
   6   -172.3078384 -0.284280E-07  0.849E-04    5.04      12.5  T
   7   -172.3078384 -0.167434E-07  0.429E-04    5.04      24.7  T
speedup  9.25
cpu  time for SCC    3.69 s
wall time for SCC    0.40 s
speedup  7.45
cpu  time for grad    1.63 s
wall time for grad    0.22 s
 E :   -170.61675668  G :  0.014577    pred/act E change: -0.106D-01 -0.321D-02
Maxdispl :   0.1372   ||displ|| :   0.1783   Lambda : -0.679D-03
Largest |displ|/coords:  0.1372 (  26)  0.0992 (  22)  0.0436 (  68)
................................................................................
.............................. CYCLE    4 ......................................
................................................................................
   1   -172.3126441 -0.172313E+03  0.455E-02    5.02       0.0  T
   2   -172.3126663 -0.221543E-04  0.252E-02    5.04       1.0  T
   3   -172.3126647  0.162165E-05  0.964E-03    5.03       1.1  T
   4   -172.3126703 -0.563157E-05  0.267E-03    5.04       4.0  T
   5   -172.3126705 -0.234875E-06  0.996E-04    5.04      10.6  T
   6   -172.3126706 -0.287786E-07  0.418E-04    5.04      25.3  T
   7   -172.3126706 -0.321944E-08  0.211E-04    5.04      50.2  T
speedup  8.29
cpu  time for SCC    2.90 s
wall time for SCC    0.35 s
speedup  7.35
cpu  time for grad    1.51 s
wall time for grad    0.21 s
 E :   -170.61714415  G :  0.003302    pred/act E change: -0.298D-02 -0.387D-03
Maxdispl :   0.0338   ||displ|| :   0.0480   Lambda : -0.490D-04
Largest |displ|/coords:  0.0338 (  26)  0.0280 (  34)  0.0174 (  22)
................................................................................
.............................. CYCLE    5 ......................................
................................................................................
   1   -172.3118960 -0.172312E+03  0.125E-02    5.03       0.0  T
   2   -172.3118971 -0.106671E-05  0.694E-03    5.03       1.5  T
   3   -172.3118970  0.156754E-06  0.234E-03    5.03       4.5  T
   4   -172.3118973 -0.370627E-06  0.649E-04    5.04      16.3  T
   5   -172.3118973 -0.136868E-07  0.199E-04    5.04      53.2  T
   6   -172.3118973 -0.131723E-08  0.746E-05    5.04     142.1  T
speedup  8.72
cpu  time for SCC    2.93 s
wall time for SCC    0.34 s
speedup  7.34
cpu  time for grad    1.65 s
wall time for grad    0.22 s
 E :   -170.61717696  G :  0.001071    pred/act E change: -0.350D-03 -0.328D-04
Maxdispl :   0.0366   ||displ|| :   0.0415   Lambda : -0.199D-04
Largest |displ|/coords:  0.0366 (  34)  0.0179 (  26)  0.0061 (  22)
................................................................................
.............................. CYCLE    6 ......................................
................................................................................
   1   -172.3111280 -0.172311E+03  0.851E-03    5.03       0.0  T
   2   -172.3111283 -0.308485E-06  0.486E-03    5.03       2.2  T
   3   -172.3111282  0.610995E-07  0.131E-03    5.03       8.1  T
   4   -172.3111284 -0.119188E-06  0.377E-04    5.03      28.1  T
   5   -172.3111284 -0.532512E-08  0.121E-04    5.03      87.8  T
   6   -172.3111284 -0.624340E-09  0.387E-05    5.03     274.2  T
speedup  8.56
cpu  time for SCC    2.86 s
wall time for SCC    0.33 s
speedup  7.62
cpu  time for grad    1.79 s
wall time for grad    0.23 s
 E :   -170.61719008  G :  0.001043    pred/act E change: -0.245D-04 -0.131D-04
Maxdispl :   0.0260   ||displ|| :   0.0270   Lambda : -0.681D-05
Largest |displ|/coords:  0.0260 (  34)  0.0064 (  26)  0.0023 (  86)
................................................................................
.............................. CYCLE    7 ......................................
................................................................................
   1   -172.3109749 -0.172311E+03  0.461E-03    5.03       0.0  T
   2   -172.3109749 -0.372447E-07  0.272E-03    5.03       3.9  T
   3   -172.3109749  0.108412E-07  0.464E-04    5.03      22.9  T
   4   -172.3109749 -0.175092E-07  0.130E-04    5.03      81.7  T
   5   -172.3109749 -0.678398E-09  0.459E-05    5.03     230.7  T
speedup  9.69
cpu  time for SCC    2.98 s
wall time for SCC    0.31 s
speedup  7.16
cpu  time for grad    1.64 s
wall time for grad    0.23 s
 E :   -170.61719435  G :  0.000678    pred/act E change: -0.996D-05 -0.428D-05
Maxdispl :   0.0081   ||displ|| :   0.0086   Lambda : -0.127D-05
Largest |displ|/coords:  0.0081 (  34)  0.0016 (  22)  0.0014 (  86)
................................................................................
.............................. CYCLE    8 ......................................
................................................................................
   1   -172.3111150 -0.172311E+03  0.151E-03    5.03       0.0  T
   2   -172.3111150 -0.396761E-08  0.893E-04    5.03      11.9  T
   3   -172.3111150  0.678625E-09  0.151E-04    5.03      70.4  T
   4   -172.3111150 -0.120062E-08  0.306E-05    5.03     346.1  T
speedup  8.43
cpu  time for SCC    2.22 s
wall time for SCC    0.26 s
speedup  7.10
cpu  time for grad    1.60 s
wall time for grad    0.23 s
 E :   -170.61719509  G :  0.000210    pred/act E change: -0.341D-05 -0.736D-06
Maxdispl :   0.0005   ||displ|| :   0.0009   Lambda : -0.877D-07
Largest |displ|/coords:  0.0005 (  22)  0.0003 (  68)  0.0003 (  26)
ancopt converged in          8 cycles
total energy gain (kcal):     -9.9919
================
 final structure:
================
    89
       -170.61719509
C          -3.15137089855545   -1.57121727143250   -0.00000000017465
C           1.57121727166717   -3.15137089872099   -0.00000000004961
C           3.15137089868623    1.57121727170786    0.00000000004539
C          -1.57121727162743    3.15137089871543   -0.00000000008635
C          -3.52042628312248   -0.07770891532427   -0.00000000008571
C           0.07770891559035   -3.52042628309426   -0.00000000017771
C           3.52042628309300    0.07770891553893   -0.00000000005950
C          -0.07770891549105    3.52042628321500   -0.00000000018831
N          -2.98020534367129    0.41604352062436   -1.22844039833020
N          -0.41604352047186   -2.98020534335350   -1.22844039854588
N           2.98020534347741   -0.41604352067391   -1.22844039846440
N           0.41604352075639    2.98020534341261    1.22844039754244
N          -2.98020534372957    0.41604352069907    1.22844039793322
N          -0.41604352059661   -2.98020534338187    1.22844039802393
N           2.98020534351568   -0.41604352078504    1.22844039801523
N           0.41604352071032    2.98020534380202   -1.22844039877201
N          -2.44338229031509   -1.75651672149950   -1.22846217811111
N           1.75651672224783   -2.44338229070903   -1.22846217805227
N           2.44338229061186    1.75651672161808   -1.22846217806346
N          -1.75651672193627    2.44338229075522    1.22846217747483
N          -2.44338229041869   -1.75651672184401    1.22846217766130
N           1.75651672192992   -2.44338229061345    1.22846217771643
N           2.44338229100758    1.75651672196763    1.22846217774390
N          -1.75651672195174    2.44338229076077   -1.22846217816116
C          -2.46604087196451   -0.60950056721360   -2.00377794255159
C           0.60950056728874   -2.46604087109960   -2.00377794326136
C           2.46604087121175    0.60950056767529   -2.00377794224093
C          -0.60950056711698    2.46604087178909    2.00377794396374
C          -2.46604087054165   -0.60950056690068    2.00377794411253
C           0.60950056715303   -2.46604087194576    2.00377794318518
C           2.46604087076854    0.60950056714004    2.00377794377857
C          -0.60950056743429    2.46604087060804   -2.00377794315069
O          -2.14450934908871   -0.53004805603255   -3.15333849238900
O           0.53004805653415   -2.14450934744694   -3.15333849137551
O           2.14450934724763    0.53004805642727   -3.15333849131404
O          -0.53004805698972    2.14450935031559    3.15333849288684
O          -2.14450934779656   -0.53004805604416    3.15333849209891
O           0.53004805715203   -2.14450934969568    3.15333849195996
O           2.14450934746199    0.53004805683437    3.15333849201879
O          -0.53004805611189    2.14450934617501   -3.15333849135680
C          -2.94803139096636    1.77959074788994   -1.67767070436880
C          -1.77959074768290   -2.94803139063328   -1.67767070421846
C           2.94803139085495   -1.77959074786251   -1.67767070430218
C           1.77959074800913    2.94803139072542    1.67767070413196
C          -2.94803139072764    1.77959074811384    1.67767070410468
C          -1.77959074807750   -2.94803139076740    1.67767070393535
C           2.94803139072061   -1.77959074803381    1.67767070411618
C           1.77959074763203    2.94803139097320   -1.67767070438741
H          -3.84006903797934    2.31802468303303   -1.33879817554783
H          -2.31802468264599   -3.84006903768903   -1.33879817495765
H           3.84006903811260   -2.31802468264218   -1.33879817515181
H           2.31802468288005    3.84006903811214    1.33879817556032
H          -3.84006903811086    2.31802468288625    1.33879817522064
H          -2.31802468278984   -3.84006903794261    1.33879817455898
H           3.84006903802572   -2.31802468287245    1.33879817500174
H           2.31802468294825    3.84006903785336   -1.33879817528976
H          -2.88666459211291    1.74254799780606   -2.77395574061930
H          -1.74254799831911   -2.88666459222150   -2.77395574054996
H           2.88666459237909   -1.74254799802740   -2.77395574058440
H           1.74254799780528    2.88666459195317    2.77395574021092
H          -2.88666459215717    1.74254799847128    2.77395574019457
H          -1.74254799829596   -2.88666459282923    2.77395574013032
H           2.88666459227143   -1.74254799859175    2.77395574024674
H           1.74254799841283    2.88666459202574   -2.77395574067829
C          -5.03003794618258   -0.44630997815464    0.00000000056644
C           0.44630997787210   -5.03003794602092   -0.00000000052059
C           5.03003794614612    0.44630997786004   -0.00000000071979
C          -0.44630997794662    5.03003794616608   -0.00000000043728
H          -5.56186802791083   -0.11910806914728   -0.89181086833990
H           0.11910806987534   -5.56186802753609   -0.89181086994820
H           5.56186802728646    0.11910806982948   -0.89181087032737
H          -0.11910806889218    5.56186802766162    0.89181086860399
H          -5.56186802745979   -0.11910806981333    0.89181086992905
H           0.11910806811634   -5.56186802750069    0.89181086827896
H           5.56186802785427    0.11910806828970    0.89181086793103
H          -0.11910806940531    5.56186802762973   -0.89181086965359
C          -4.65892799227548   -1.94816090406164   -0.00000000023588
C           1.94816090388879   -4.65892799265361    0.00000000089067
C           4.65892799269038    1.94816090388693    0.00000000060964
C          -1.94816090392450    4.65892799266284    0.00000000008034
H          -4.97714807762579   -2.48541055011651   -0.89181149103237
H           2.48541055116267   -4.97714807805473   -0.89181148912425
H           4.97714807787739    2.48541055103849   -0.89181148953262
H          -2.48541055014582    4.97714807777486    0.89181149079321
H          -4.97714807722056   -2.48541055109055    0.89181149004372
H           2.48541054954047   -4.97714807769779    0.89181149196187
H           4.97714807791198    2.48541054958064    0.89181149159774
H          -2.48541055065552    4.97714807792631   -0.89181149032079
HE          0.00000000005652   -0.00000000015958    0.00000000095052
 
 Bond Distances (Angstroems)
 ---------------------------
C1-C5=1.5384         C1-N17=1.4299        C1-N21=1.4299        C1-C77=1.5540        C2-C6=1.5384         C2-N18=1.4299        
C2-N22=1.4299        C2-C78=1.5540        C3-C7=1.5384         C3-N19=1.4299        C3-N23=1.4299        C3-C79=1.5540        
C4-C8=1.5384         C4-N20=1.4299        C4-N24=1.4299        C4-C80=1.5540        C5-C1=1.5384         C5-N9=1.4299         
C5-N13=1.4299        C5-C65=1.5540        C6-C2=1.5384         C6-N10=1.4299        C6-N14=1.4299        C6-C66=1.5540        
C7-C3=1.5384         C7-N11=1.4299        C7-N15=1.4299        C7-C67=1.5540        C8-C4=1.5384         C8-N12=1.4299        
C8-N16=1.4299        C8-C68=1.5540        N9-C5=1.4299         N9-C25=1.3846        N9-C41=1.4360        N10-C6=1.4299        
N10-C26=1.3846       N10-C42=1.4360       N11-C7=1.4299        N11-C27=1.3846       N11-C43=1.4360       N12-C8=1.4299        
N12-C28=1.3846       N12-C44=1.4360       N13-C5=1.4299        N13-C29=1.3846       N13-C45=1.4360       N14-C6=1.4299        
N14-C30=1.3846       N14-C46=1.4360       N15-C7=1.4299        N15-C31=1.3846       N15-C47=1.4360       N16-C8=1.4299        
N16-C32=1.3846       N16-C48=1.4360       N17-C1=1.4299        N17-C25=1.3847       N17-C42=1.4360       N18-C2=1.4299        
N18-C26=1.3847       N18-C43=1.4360       N19-C3=1.4299        N19-C27=1.3847       N19-C48=1.4360       N20-C4=1.4299        
N20-C28=1.3847       N20-C45=1.4360       N21-C1=1.4299        N21-C29=1.3847       N21-C46=1.4360       N22-C2=1.4299        
N22-C30=1.3847       N22-C47=1.4360       N23-C3=1.4299        N23-C31=1.3847       N23-C44=1.4360       N24-C4=1.4299        
N24-C32=1.3847       N24-C41=1.4360       C25-N9=1.3846        C25-N17=1.3847       C25-O33=1.1963       C26-N10=1.3846       
C26-N18=1.3847       C26-O34=1.1963       C27-N11=1.3846       C27-N19=1.3847       C27-O35=1.1963       C28-N12=1.3846       
C28-N20=1.3847       C28-O36=1.1963       C29-N13=1.3846       C29-N21=1.3847       C29-O37=1.1963       C30-N14=1.3846       
C30-N22=1.3847       C30-O38=1.1963       C31-N15=1.3846       C31-N23=1.3847       C31-O39=1.1963       C32-N16=1.3846       
C32-N24=1.3847       C32-O40=1.1963       O33-C25=1.1963       O34-C26=1.1963       O35-C27=1.1963       O36-C28=1.1963       
O37-C29=1.1963       O38-C30=1.1963       O39-C31=1.1963       O40-C32=1.1963       C41-N9=1.4360        C41-N24=1.4360       
C41-H49=1.0957       C41-H57=1.0986       C42-N10=1.4360       C42-N17=1.4360       C42-H50=1.0957       C42-H58=1.0986       
C43-N11=1.4360       C43-N18=1.4360       C43-H51=1.0957       C43-H59=1.0986       C44-N12=1.4360       C44-N23=1.4360       
C44-H52=1.0957       C44-H60=1.0986       C45-N13=1.4360       C45-N20=1.4360       C45-H53=1.0957       C45-H61=1.0986       
C46-N14=1.4360       C46-N21=1.4360       C46-H54=1.0957       C46-H62=1.0986       C47-N15=1.4360       C47-N22=1.4360       
C47-H55=1.0957       C47-H63=1.0986       C48-N16=1.4360       C48-N19=1.4360       C48-H56=1.0957       C48-H64=1.0986       
H49-C41=1.0957       H50-C42=1.0957       H51-C43=1.0957       H52-C44=1.0957       H53-C45=1.0957       H54-C46=1.0957       
H55-C47=1.0957       H56-C48=1.0957       H57-C41=1.0986       H58-C42=1.0986       H59-C43=1.0986       H60-C44=1.0986       
H61-C45=1.0986       H62-C46=1.0986       H63-C47=1.0986       H64-C48=1.0986       C65-C5=1.5540        C65-H69=1.0887       
C65-H73=1.0887       C65-C77=1.5470       C66-C6=1.5540        C66-H70=1.0887       C66-H74=1.0887       C66-C78=1.5470       
C67-C7=1.5540        C67-H71=1.0887       C67-H75=1.0887       C67-C79=1.5470       C68-C8=1.5540        C68-H72=1.0887       
C68-H76=1.0887       C68-C80=1.5470       H69-C65=1.0887       H70-C66=1.0887       H71-C67=1.0887       H72-C68=1.0887       
H73-C65=1.0887       H74-C66=1.0887       H75-C67=1.0887       H76-C68=1.0887       C77-C1=1.5540        C77-C65=1.5470       
C77-H81=1.0887       C77-H85=1.0887       C78-C2=1.5540        C78-C66=1.5470       C78-H82=1.0887       C78-H86=1.0887       
C79-C3=1.5540        C79-C67=1.5470       C79-H83=1.0887       C79-H87=1.0887       C80-C4=1.5540        C80-C68=1.5470       
C80-H84=1.0887       C80-H88=1.0887       H81-C77=1.0887       H82-C78=1.0887       H83-C79=1.0887       H84-C80=1.0887       
H85-C77=1.0887       H86-C78=1.0887       H87-C79=1.0887       H88-C80=1.0887       
 C  H  Rav=1.0929 sigma=0.0044  Rmin=1.0887  Rmax=1.0986    32
 C  C  Rav=1.5483 sigma=0.0064  Rmin=1.5384  Rmax=1.5540    16
 N  C  Rav=1.4169 sigma=0.0229  Rmin=1.3846  Rmax=1.4360    48
 O  C  Rav=1.1963 sigma=0.0000  Rmin=1.1963  Rmax=1.1963     8
 
 selected bond angles (degree)
 --------------------
N17-C1-C5=104.16               N21-C1-C5=104.16               N21-C1-N17=118.43              C77-C1-C5= 90.16               
C77-C1-N17=116.67              C77-C1-N21=116.67              N18-C2-C6=104.16               N22-C2-C6=104.16               
N22-C2-N18=118.43              C78-C2-C6= 90.16               C78-C2-N18=116.67              C78-C2-N22=116.67              
N19-C3-C7=104.16               N23-C3-C7=104.16               N23-C3-N19=118.43              C79-C3-C7= 90.16               
C79-C3-N19=116.67              C79-C3-N23=116.67              N20-C4-C8=104.16               N24-C4-C8=104.16               
N24-C4-N20=118.43              C80-C4-C8= 90.16               C80-C4-N20=116.67              C80-C4-N24=116.67              
N9-C5-C1=104.16                N13-C5-C1=104.16               N13-C5-N9=118.43               C65-C5-C1= 90.16               
C65-C5-N9=116.67               C65-C5-N13=116.67              N10-C6-C2=104.16               N14-C6-C2=104.16               
N14-C6-N10=118.43              C66-C6-C2= 90.16               C66-C6-N10=116.67              C66-C6-N14=116.67              
N11-C7-C3=104.16               N15-C7-C3=104.16               N15-C7-N11=118.43              C67-C7-C3= 90.16               
C67-C7-N11=116.67              C67-C7-N15=116.67              N12-C8-C4=104.16               N16-C8-C4=104.16               
N16-C8-N12=118.43              C68-C8-C4= 90.16               C68-C8-N12=116.67              C68-C8-N16=116.67              
C25-N9-C5=111.44               C41-N9-C5=127.24               C41-N9-C25=121.32              C26-N10-C6=111.44              
C42-N10-C6=127.24              C42-N10-C26=121.32             
 
 selected dihedral angles (degree)
 ---------------------------------
N9-C5-C1-N17=  0.00           N9-C5-C1-N21=124.75           N9-C5-C1-C77=242.38           N13-C5-C1-N17=235.25          
N13-C5-C1-N21=  0.00          N13-C5-C1-C77=117.62          C65-C5-C1-N17=117.62          C65-C5-C1-N21=242.38          
C65-C5-C1-C77=  0.00          N10-C6-C2-N18=  0.00          N10-C6-C2-N22=124.75          N10-C6-C2-C78=242.38          
N14-C6-C2-N18=235.25          N14-C6-C2-N22=  0.00          N14-C6-C2-C78=117.62          C66-C6-C2-N18=117.62          
C66-C6-C2-N22=242.38          C66-C6-C2-C78=  0.00          N11-C7-C3-N19=  0.00          N11-C7-C3-N23=124.75          
N11-C7-C3-C79=242.38          N15-C7-C3-N19=235.25          N15-C7-C3-N23=  0.00          N15-C7-C3-C79=117.62          
C67-C7-C3-N19=117.62          C67-C7-C3-N23=242.38          C67-C7-C3-C79=  0.00          N12-C8-C4-N20=  0.00          
N12-C8-C4-N24=235.25          N12-C8-C4-C80=117.62          N16-C8-C4-N20=124.75          N16-C8-C4-N24=  0.00          
N16-C8-C4-C80=242.38          C68-C8-C4-N20=242.38          C68-C8-C4-N24=117.62          C68-C8-C4-C80=  0.00          
C25-N9-C5-C1=  6.02           C25-N9-C5-N13=121.07          C25-N9-C5-C65=268.56          C41-N9-C5-C1=185.48           
C41-N9-C5-N13=300.53          C41-N9-C5-C65= 88.02          C26-N10-C6-C2=  6.02          C26-N10-C6-N14=121.07         
C26-N10-C6-C66=268.56         C42-N10-C6-C2=185.48          C42-N10-C6-N14=300.53         C42-N10-C6-C66= 88.02         
 
 CMA Distance (Angstroems)
 ---------------------------
R(CMA):  0.0000
 
             =======================================
             |                                     |
             |        S C C  calculation           |
             |                                     |
             =======================================
 #proc     :                      1
 Ncao      :                    260
 Nao       :                    260
 Nel       :                    290
 T(el)     :   300.0
 intcut    :    25.0
 scfconv   :  0.100E-05
   qconv   :  0.200E-04
 intneglect:  0.100E-07
 broydamp  :      0.400
 Nshell    :                    146
 iter      E             dE          RMSdq      gap      omega  full diag
   1   -172.3111150 -0.172311E+03  0.106E-05    5.03       0.0  T
   2   -172.3111150 -0.420641E-11  0.573E-06    5.03    1849.4  T
   3   -172.3111150  0.852651E-13  0.388E-06    5.03    2731.6  T
speedup  8.00
cpu  time for SCC    2.00 s
wall time for SCC    0.25 s

          eigenvalues
 #    :         133        134        135        136        137        138        139        140
 occ. :        2.000      2.000      2.000      2.000      2.000      2.000      2.000      2.000
 eps  :       -10.404    -10.377    -10.377    -10.367    -10.339    -10.219    -10.155    -10.155
 #    :         141        142        143        144        145        146        147        148
 occ. :        2.000      2.000      2.000      2.000      2.000      0.000      0.000      0.000
 eps  :       -10.066     -9.978     -9.951     -9.951     -9.794     -4.761     -4.686     -4.550
 #    :         149        150        151        152        153        154        155        156
 occ. :        0.000      0.000      0.000      0.000      0.000      0.000      0.000      0.000
 eps  :        -4.550     -4.497     -4.497     -4.381     -4.370     -0.808     -0.808     -0.806
 
 
 Mulliken/CM5 charges        n(s)   n(p)   n(d)
     1 C   0.08149  0.20698   1.080  2.838  0.000
     2 C   0.08149  0.20698   1.080  2.838  0.000
     3 C   0.08149  0.20698   1.080  2.838  0.000
     4 C   0.08149  0.20698   1.080  2.838  0.000
     5 C   0.08149  0.20698   1.080  2.838  0.000
     6 C   0.08149  0.20698   1.080  2.838  0.000
     7 C   0.08149  0.20698   1.080  2.838  0.000
     8 C   0.08149  0.20698   1.080  2.838  0.000
     9 N  -0.04217 -0.27720   1.130  3.912  0.000
    10 N  -0.04217 -0.27720   1.130  3.912  0.000
    11 N  -0.04217 -0.27720   1.130  3.912  0.000
    12 N  -0.04217 -0.27720   1.130  3.912  0.000
    13 N  -0.04217 -0.27720   1.130  3.912  0.000
    14 N  -0.04217 -0.27720   1.130  3.912  0.000
    15 N  -0.04217 -0.27720   1.130  3.912  0.000
    16 N  -0.04217 -0.27720   1.130  3.912  0.000
    17 N  -0.04217 -0.27720   1.130  3.912  0.000
    18 N  -0.04217 -0.27720   1.130  3.912  0.000
    19 N  -0.04217 -0.27720   1.130  3.912  0.000
    20 N  -0.04217 -0.27720   1.130  3.912  0.000
    21 N  -0.04217 -0.27720   1.130  3.912  0.000
    22 N  -0.04217 -0.27720   1.130  3.912  0.000
    23 N  -0.04217 -0.27720   1.130  3.912  0.000
    24 N  -0.04217 -0.27720   1.130  3.912  0.000
    25 C   0.23384  0.40510   1.056  2.710  0.000
    26 C   0.23384  0.40510   1.056  2.710  0.000
    27 C   0.23384  0.40510   1.056  2.710  0.000
    28 C   0.23384  0.40510   1.056  2.710  0.000
    29 C   0.23384  0.40510   1.056  2.710  0.000
    30 C   0.23384  0.40510   1.056  2.710  0.000
    31 C   0.23384  0.40510   1.056  2.710  0.000
    32 C   0.23384  0.40510   1.056  2.710  0.000
    33 O  -0.39962 -0.44172   1.725  4.674  0.000
    34 O  -0.39962 -0.44172   1.725  4.674  0.000
    35 O  -0.39962 -0.44172   1.725  4.674  0.000
    36 O  -0.39962 -0.44172   1.725  4.674  0.000
    37 O  -0.39962 -0.44172   1.725  4.674  0.000
    38 O  -0.39962 -0.44172   1.725  4.674  0.000
    39 O  -0.39962 -0.44172   1.725  4.674  0.000
    40 O  -0.39962 -0.44172   1.725  4.674  0.000
    41 C   0.03324  0.06009   1.071  2.895  0.000
    42 C   0.03324  0.06009   1.071  2.895  0.000
    43 C   0.03324  0.06009   1.071  2.895  0.000
    44 C   0.03324  0.06009   1.071  2.895  0.000
    45 C   0.03324  0.06009   1.071  2.895  0.000
    46 C   0.03324  0.06009   1.071  2.895  0.000
    47 C   0.03324  0.06009   1.071  2.895  0.000
    48 C   0.03324  0.06009   1.071  2.895  0.000
    49 H   0.03815  0.11500   0.962  0.000  0.000
    50 H   0.03815  0.11500   0.962  0.000  0.000
    51 H   0.03815  0.11500   0.962  0.000  0.000
    52 H   0.03815  0.11500   0.962  0.000  0.000
    53 H   0.03815  0.11500   0.962  0.000  0.000
    54 H   0.03815  0.11500   0.962  0.000  0.000
    55 H   0.03815  0.11500   0.962  0.000  0.000
    56 H   0.03815  0.11500   0.962  0.000  0.000
    57 H   0.07254  0.16091   0.927  0.000  0.000
    58 H   0.07254  0.16091   0.927  0.000  0.000
    59 H   0.07254  0.16091   0.927  0.000  0.000
    60 H   0.07254  0.16091   0.927  0.000  0.000
    61 H   0.07254  0.16091   0.927  0.000  0.000
    62 H   0.07254  0.16091   0.927  0.000  0.000
    63 H   0.07254  0.16091   0.927  0.000  0.000
    64 H   0.07254  0.16091   0.927  0.000  0.000
    65 C  -0.04619 -0.13881   1.077  2.970  0.000
    66 C  -0.04619 -0.13881   1.077  2.970  0.000
    67 C  -0.04619 -0.13881   1.077  2.970  0.000
    68 C  -0.04619 -0.13881   1.077  2.970  0.000
    69 H   0.03536  0.09411   0.965  0.000  0.000
    70 H   0.03536  0.09411   0.965  0.000  0.000
    71 H   0.03536  0.09411   0.965  0.000  0.000
    72 H   0.03536  0.09411   0.965  0.000  0.000
    73 H   0.03536  0.09411   0.965  0.000  0.000
    74 H   0.03536  0.09411   0.965  0.000  0.000
    75 H   0.03536  0.09411   0.965  0.000  0.000
    76 H   0.03536  0.09411   0.965  0.000  0.000
    77 C  -0.04619 -0.13881   1.077  2.970  0.000
    78 C  -0.04619 -0.13881   1.077  2.970  0.000
    79 C  -0.04619 -0.13881   1.077  2.970  0.000
    80 C  -0.04619 -0.13881   1.077  2.970  0.000
    81 H   0.03536  0.09411   0.965  0.000  0.000
    82 H   0.03536  0.09411   0.965  0.000  0.000
    83 H   0.03536  0.09411   0.965  0.000  0.000
    84 H   0.03536  0.09411   0.965  0.000  0.000
    85 H   0.03536  0.09411   0.965  0.000  0.000
    86 H   0.03536  0.09411   0.965  0.000  0.000
    87 H   0.03536  0.09411   0.965  0.000  0.000
    88 H   0.03536  0.09411   0.965  0.000  0.000
    89 HE  0.00138 -0.01100   2.000 -0.001  0.000
 
 Wiberg/Mayer (AO) data. WBOs > 0.1 written file <wbo>
 largest (>0.05) Wiberg bond orders for each atom
           total WBO             WBO to atom ...
     1  C   3.963    N   21 0.993    N   17 0.993    C   77 0.946    C    5 0.932
     2  C   3.963    N   22 0.993    N   18 0.993    C   78 0.946    C    6 0.932
     3  C   3.963    N   23 0.993    N   19 0.993    C   79 0.946    C    7 0.932
     4  C   3.963    N   20 0.993    N   24 0.993    C   80 0.946    C    8 0.932
     5  C   3.963    N   13 0.993    N    9 0.993    C   65 0.946    C    1 0.932
     6  C   3.963    N   14 0.993    N   10 0.993    C   66 0.946    C    2 0.932
     7  C   3.963    N   15 0.993    N   11 0.993    C   67 0.946    C    3 0.932
     8  C   3.963    N   12 0.993    N   16 0.993    C   68 0.946    C    4 0.932
     9  N   3.419    C   25 1.097    C   41 0.996    C    5 0.993    O   33 0.149
    10  N   3.419    C   26 1.097    C   42 0.996    C    6 0.993    O   34 0.149
    11  N   3.419    C   27 1.097    C   43 0.996    C    7 0.993    O   35 0.149
    12  N   3.419    C   28 1.097    C   44 0.996    C    8 0.993    O   36 0.149
    13  N   3.419    C   29 1.097    C   45 0.996    C    5 0.993    O   37 0.149
    14  N   3.419    C   30 1.097    C   46 0.996    C    6 0.993    O   38 0.149
    15  N   3.419    C   31 1.097    C   47 0.996    C    7 0.993    O   39 0.149
    16  N   3.419    C   32 1.097    C   48 0.996    C    8 0.993    O   40 0.149
    17  N   3.419    C   25 1.097    C   42 0.996    C    1 0.993    O   33 0.149
    18  N   3.419    C   26 1.097    C   43 0.996    C    2 0.993    O   34 0.149
    19  N   3.419    C   27 1.097    C   48 0.996    C    3 0.993    O   35 0.149
    20  N   3.419    C   28 1.097    C   45 0.996    C    4 0.993    O   36 0.149
    21  N   3.419    C   29 1.097    C   46 0.996    C    1 0.993    O   37 0.149
    22  N   3.419    C   30 1.097    C   47 0.996    C    2 0.993    O   38 0.149
    23  N   3.419    C   31 1.097    C   44 0.996    C    3 0.993    O   39 0.149
    24  N   3.419    C   32 1.097    C   41 0.996    C    4 0.993    O   40 0.149
    25  C   3.965    O   33 1.703    N    9 1.097    N   17 1.097
    26  C   3.965    O   34 1.703    N   10 1.097    N   18 1.097
    27  C   3.965    O   35 1.703    N   11 1.097    N   19 1.097
    28  C   3.965    O   36 1.703    N   12 1.097    N   20 1.097
    29  C   3.965    O   37 1.703    N   13 1.097    N   21 1.097
    30  C   3.965    O   38 1.703    N   14 1.097    N   22 1.097
    31  C   3.965    O   39 1.703    N   15 1.097    N   23 1.097
    32  C   3.965    O   40 1.703    N   16 1.097    N   24 1.097
    33  O   2.063    C   25 1.703    N    9 0.149    N   17 0.149
    34  O   2.063    C   26 1.703    N   10 0.149    N   18 0.149
    35  O   2.063    C   27 1.703    N   11 0.149    N   19 0.149
    36  O   2.063    C   28 1.703    N   12 0.149    N   20 0.149
    37  O   2.063    C   29 1.703    N   13 0.149    N   21 0.149
    38  O   2.063    C   30 1.703    N   14 0.149    N   22 0.149
    39  O   2.063    C   31 1.703    N   15 0.149    N   23 0.149
    40  O   2.063    C   32 1.703    N   16 0.149    N   24 0.149
    41  C   3.969    N    9 0.996    N   24 0.996    H   49 0.965    H   57 0.958
    42  C   3.969    N   10 0.996    N   17 0.996    H   50 0.965    H   58 0.958
    43  C   3.969    N   11 0.996    N   18 0.996    H   51 0.965    H   59 0.958
    44  C   3.969    N   12 0.996    N   23 0.996    H   52 0.965    H   60 0.958
    45  C   3.969    N   13 0.996    N   20 0.996    H   53 0.965    H   61 0.958
    46  C   3.969    N   14 0.996    N   21 0.996    H   54 0.965    H   62 0.958
    47  C   3.969    N   15 0.996    N   22 0.996    H   55 0.965    H   63 0.958
    48  C   3.969    N   16 0.996    N   19 0.996    H   56 0.965    H   64 0.958
    49  H   0.998    C   41 0.965
    50  H   0.998    C   42 0.965
    51  H   0.998    C   43 0.965
    52  H   0.998    C   44 0.965
    53  H   0.998    C   45 0.965
    54  H   0.998    C   46 0.965
    55  H   0.998    C   47 0.965
    56  H   0.998    C   48 0.965
    57  H   0.994    C   41 0.958
    58  H   0.994    C   42 0.958
    59  H   0.994    C   43 0.958
    60  H   0.994    C   44 0.958
    61  H   0.994    C   45 0.958
    62  H   0.994    C   46 0.958
    63  H   0.994    C   47 0.958
    64  H   0.994    C   48 0.958
    65  C   3.988    C   77 1.002    H   69 0.981    H   73 0.981    C    5 0.946
    66  C   3.988    C   78 1.002    H   74 0.981    H   70 0.981    C    6 0.946
    67  C   3.988    C   79 1.002    H   75 0.981    H   71 0.981    C    7 0.946
    68  C   3.988    C   80 1.002    H   72 0.981    H   76 0.981    C    8 0.946
    69  H   0.998    C   65 0.981
    70  H   0.998    C   66 0.981
    71  H   0.998    C   67 0.981
    72  H   0.998    C   68 0.981
    73  H   0.998    C   65 0.981
    74  H   0.998    C   66 0.981
    75  H   0.998    C   67 0.981
    76  H   0.998    C   68 0.981
    77  C   3.988    C   65 1.002    H   81 0.981    H   85 0.981    C    1 0.946
    78  C   3.988    C   66 1.002    H   86 0.981    H   82 0.981    C    2 0.946
    79  C   3.988    C   67 1.002    H   83 0.981    H   87 0.981    C    3 0.946
    80  C   3.988    C   68 1.002    H   84 0.981    H   88 0.981    C    4 0.946
    81  H   0.998    C   77 0.981
    82  H   0.998    C   78 0.981
    83  H   0.998    C   79 0.981
    84  H   0.998    C   80 0.981
    85  H   0.998    C   77 0.981
    86  H   0.998    C   78 0.981
    87  H   0.998    C   79 0.981
    88  H   0.998    C   80 0.981
    89  HE -0.002
 density
 
 cube file module (SG, 7/16)
 cube_pthr     :   0.005
 cube_step     :   0.400
 non-zero P (%):  27.365   nmat:    9285
 Grid Boundaries (x y z) :
   13.5104063388028        13.5104063384387        8.95894557692604     
  -13.5104063389096       -13.5104063382015       -8.95894557598525     
 Total # of points                208080
 writing density.cub
 N    (numint) : ******
cpu  time for cube    1 m  1.8 s
wall time for cube    1 m  0.8 s
 
molecular dipole:
                 x           y           z       tot (Debye)
 q only:       -0.000       0.000       0.000
   full:       -0.000       0.000       0.000       0.000
molecular quadrupole (traceless):
                xx          xy          yy          xz          yz          zz
 q only:       54.096       0.000      54.096      -0.000       0.000    -108.192
  q+dip:       61.409       0.000      61.409      -0.000      -0.000    -122.818
   full:       63.952       0.000      63.952      -0.000      -0.000    -127.904
 SCC converged in                      3  cycles
 
SCC energy    :    -172.3111150
rep           :       1.8264196
ES            :      -0.0231601
AES           :       0.0131321
disp          :      -0.1324997
XB            :       0.0000000
fix           :       0.0000000
total E       :    -170.6171951
atomizationE  :      23.5312876    14766.11
(atE without considerung molecular charge,
 total energy contains solvation terms)
H-L gap (eV)  :          5.0331
 !!!!!!!!!!!!!!!!!!!!!!!!!!!!!!!!!!!
 ! Note: the input coordinates are !
 ! NOT overwritten. The optimized  !
 ! ones are on file <xtbopt.coord> !
 ! (or on <xtbopt.xyz> if it was a !
 ! xyz file)                       !
 !!!!!!!!!!!!!!!!!!!!!!!!!!!!!!!!!!!
 
speedup  1.30
cpu  time for all    2 m 47.6 s
wall time for all    2 m  9.2 s
