 
        ______________________________________
       |                                      |
       |           ==================         |
       |                 x T B                |
       |           ==================         |
       |               S. Grimme              |
       |        Universitaet Bonn, MCTC       |
       |         2015-18, Version 5.0         |
       |      Sat Jan 20 11:00:33 CET 2018    |
       |______________________________________|
 
        This code comes without any warranty
        for non-commercial, academia use only.
        Cite GFN-xTB work as:
        S. Grimme, C. Bannwarth, P. Shushkov
        JCTC, 13 (2017) 1989-2009
        for GFN2:
        C. Bannwarth, S. Ehlert, S. Grimme
        to be published.
        sTDA-xTB:
        S. Grimme  &  C. Bannwarth, JCP 145 (2016) 054103
        in the mass-spec context additionally:
        V. Asgeirsson, C.Bauer, S. Grimme, Chem. Sci. 8 (2017) 4879
 
        with help from
        P. Shushkov, G. Brandenburg, S. Dohm, J. Pisarek,
        F. März, M. Checinski, S. Ehrlich, S. Spicher, 
        P. Pracht, E. Caldeweyher, S. Ehlert, and C. Bannwarth.
 
        usage        :
        xtb <coord_file> [options]
        where <coord_file> is a valid file of TM)
        (*coord, Bohr) or xmol (*xyz, Angstroem)
        format.

        options:
        -chrg <int>   : molecular charge
        -uhf  <int>   : # of unpaired electrons(=2*S)
        -nox          : skip second, extended part in sTDA-xTB
        -pop          : do population analysis
                      : (default for -nox)
        -mowr <real>  : cut MO write above (def.3 Eh)
        -molden       : write formatted molden file
        -parx <file>  : read parameters for sTDA-xTB
                        calc (def:~/.param_stda2.xtb)
        -parv <file>  : read parameters for vTB part in
                        sTDA-xTB (def: ~/.param_stda1.xtb)
        -xtemp <real> : el. temp for xTB (def. 0 K)
        -etemp <real> : el. temp for GFN (def. 300 K)
        -fod          : do a xTB calc. of the FOD
                        and write molden.input file 
                        with appropriate occupations
                        for plotting. Def. T=12500 K
 
        -gfn          : use GFN-xTB
        -grad         : GFN-xTB gradient
        -acc <real>   : GFN-xTB accuracy (def. 1.0)
        -opt [level]  : optimize at GFN-xTB
                      : level=crude,vloose,loose,
                      :       tight,vtight
        -hess         : compute Hessian at GFN-xTB
        -ohess        : optimize and compute Hessian
        -omd          : optimize and do MD
        -siman        : conformational search
        -screen       : opt. loop over ensemble
        -gmd          : annealed MD for GMD procedure
        -modef        : vib mode following
        -gbsa [string1] [string2]
                        use GBSA implicit solvent
                        for solvent [string1] and
                        solvation state [string2]=
                        reference, bar1M (default=1M)
        additional GFN/opt/MD/siman options read from
        $XTBHOME/.xtbrc or $set in coordinate file
 
       spin and charge state information can be on:
       <.CHRG> (charge) and <.UHF> (=nalpha-nbeta)
       -uhf and -chrg override the file info.
       useful machine settings:
       setenv MKL_NUM_THREADS <NCORE_ON_YOUR_MACHINE>
       setenv OMP_STACKSIZE 500m
       limit stacksize unlimited
 
       total energies in Eh, gaps/HL energies in eV
       please read REVISION and HOWTO files carefully
 =============================
  # OMP threads =                     1
 =============================
 
 xtbhome directory:/Applications/xtb/
 
 argument                      1 :-gmd
 
 number of atoms            :    89
 number of electrons        :   290
 charge                     :  0
 spin                       : 0.0
 first test random number   :  0.8719
 
 
KAB for pair M(3d)-M(3d) :  1.1000
KAB for pair M(4d)-M(4d) :  1.2000
KAB for pair M(5d)-M(5d) :  1.2000
 -----------------------------------------
  G F N (Geometry, Frequency, Non-covalent)
        parametrization, version                     2
 /Applications/xtb/.param_gfn2.xtb
 -----------------------------------------
      method parameters     
 k(s)        :  1.8500
 k(p)        :  2.2500
 k(d)        :  2.0000
 k(f)        :  0.0000
 alphaj      :  1.0000
 kEN (H0ij)  : -2.3620
 D3 a1       :  0.6900
 D3 a2       :  4.0530
 D3 s8       :  2.0000
 D3atm       :  1.0000
 AESdamp     :  5.5000
 AESrad      :  1.9230
 expscalexp  : -0.2500
 
     -------------------------
     ! NO SOLVENT MODEL USED !
     -------------------------
 
 doing EN charges ...
 sum q :  0.6661338D-15
 point charge moment (au)
     X       Y       Z   
   0.0000  -0.0000  -0.0000  total (Debye):    0.000
 
            Z      q(EN)   CN      Cart. coordinates
     1  C   4.0    0.19    4.57    -5.95523    -2.96917    -0.00000
     2  C   4.0    0.19    4.57     2.96917    -5.95523    -0.00000
     3  C   4.0    0.19    4.57     5.95523     2.96917     0.00000
     4  C   4.0    0.19    4.57    -2.96917     5.95523    -0.00000
     5  C   4.0    0.19    4.57    -6.65264    -0.14685    -0.00000
     6  C   4.0    0.19    4.57     0.14685    -6.65264    -0.00000
     7  C   4.0    0.19    4.57     6.65264     0.14685    -0.00000
     8  C   4.0    0.19    4.57    -0.14685     6.65264    -0.00000
     9  N   5.0   -0.22    3.27    -5.63177     0.78621    -2.32142
    10  N   5.0   -0.22    3.27    -0.78621    -5.63177    -2.32142
    11  N   5.0   -0.22    3.27     5.63177    -0.78621    -2.32142
    12  N   5.0   -0.22    3.27     0.78621     5.63177     2.32142
    13  N   5.0   -0.22    3.27    -5.63177     0.78621     2.32142
    14  N   5.0   -0.22    3.27    -0.78621    -5.63177     2.32142
    15  N   5.0   -0.22    3.27     5.63177    -0.78621     2.32142
    16  N   5.0   -0.22    3.27     0.78621     5.63177    -2.32142
    17  N   5.0   -0.22    3.27    -4.61732    -3.31934    -2.32146
    18  N   5.0   -0.22    3.27     3.31934    -4.61732    -2.32146
    19  N   5.0   -0.22    3.27     4.61732     3.31934    -2.32146
    20  N   5.0   -0.22    3.27    -3.31934     4.61732     2.32146
    21  N   5.0   -0.22    3.27    -4.61732    -3.31934     2.32146
    22  N   5.0   -0.22    3.27     3.31934    -4.61732     2.32146
    23  N   5.0   -0.22    3.27     4.61732     3.31934     2.32146
    24  N   5.0   -0.22    3.27    -3.31934     4.61732    -2.32146
    25  C   4.0    0.46    3.30    -4.66014    -1.15179    -3.78659
    26  C   4.0    0.46    3.30     1.15179    -4.66014    -3.78659
    27  C   4.0    0.46    3.30     4.66014     1.15179    -3.78659
    28  C   4.0    0.46    3.30    -1.15179     4.66014     3.78659
    29  C   4.0    0.46    3.30    -4.66014    -1.15179     3.78659
    30  C   4.0    0.46    3.30     1.15179    -4.66014     3.78659
    31  C   4.0    0.46    3.30     4.66014     1.15179     3.78659
    32  C   4.0    0.46    3.30    -1.15179     4.66014    -3.78659
    33  O   6.0   -0.36    1.07    -4.05253    -1.00165    -5.95895
    34  O   6.0   -0.36    1.07     1.00165    -4.05253    -5.95895
    35  O   6.0   -0.36    1.07     4.05253     1.00165    -5.95895
    36  O   6.0   -0.36    1.07    -1.00165     4.05253     5.95895
    37  O   6.0   -0.36    1.07    -4.05253    -1.00165     5.95895
    38  O   6.0   -0.36    1.07     1.00165    -4.05253     5.95895
    39  O   6.0   -0.36    1.07     4.05253     1.00165     5.95895
    40  O   6.0   -0.36    1.07    -1.00165     4.05253    -5.95895
    41  C   4.0    0.25    4.15    -5.57097     3.36294    -3.17034
    42  C   4.0    0.25    4.15    -3.36294    -5.57097    -3.17034
    43  C   4.0    0.25    4.15     5.57097    -3.36294    -3.17034
    44  C   4.0    0.25    4.15     3.36294     5.57097     3.17034
    45  C   4.0    0.25    4.15    -5.57097     3.36294     3.17034
    46  C   4.0    0.25    4.15    -3.36294    -5.57097     3.17034
    47  C   4.0    0.25    4.15     5.57097    -3.36294     3.17034
    48  C   4.0    0.25    4.15     3.36294     5.57097    -3.17034
    49  H   1.0   -0.05    1.00    -7.25668     4.38043    -2.52996
    50  H   1.0   -0.05    1.00    -4.38043    -7.25668    -2.52996
    51  H   1.0   -0.05    1.00     7.25668    -4.38043    -2.52996
    52  H   1.0   -0.05    1.00     4.38043     7.25668     2.52996
    53  H   1.0   -0.05    1.00    -7.25668     4.38043     2.52996
    54  H   1.0   -0.05    1.00    -4.38043    -7.25668     2.52996
    55  H   1.0   -0.05    1.00     7.25668    -4.38043     2.52996
    56  H   1.0   -0.05    1.00     4.38043     7.25668    -2.52996
    57  H   1.0   -0.05    1.01    -5.45500     3.29294    -5.24202
    58  H   1.0   -0.05    1.01    -3.29294    -5.45500    -5.24202
    59  H   1.0   -0.05    1.01     5.45500    -3.29294    -5.24202
    60  H   1.0   -0.05    1.01     3.29294     5.45500     5.24202
    61  H   1.0   -0.05    1.01    -5.45500     3.29294     5.24202
    62  H   1.0   -0.05    1.01    -3.29294    -5.45500     5.24202
    63  H   1.0   -0.05    1.01     5.45500    -3.29294     5.24202
    64  H   1.0   -0.05    1.01     3.29294     5.45500    -5.24202
    65  C   4.0    0.11    4.23    -9.50539    -0.84340     0.00000
    66  C   4.0    0.11    4.23     0.84340    -9.50539    -0.00000
    67  C   4.0    0.11    4.23     9.50539     0.84340    -0.00000
    68  C   4.0    0.11    4.23    -0.84340     9.50539    -0.00000
    69  H   1.0   -0.06    1.00   -10.51041    -0.22508    -1.68528
    70  H   1.0   -0.06    1.00     0.22508   -10.51041    -1.68528
    71  H   1.0   -0.06    1.00    10.51041     0.22508    -1.68528
    72  H   1.0   -0.06    1.00    -0.22508    10.51041     1.68528
    73  H   1.0   -0.06    1.00   -10.51041    -0.22508     1.68528
    74  H   1.0   -0.06    1.00     0.22508   -10.51041     1.68528
    75  H   1.0   -0.06    1.00    10.51041     0.22508     1.68528
    76  H   1.0   -0.06    1.00    -0.22508    10.51041    -1.68528
    77  C   4.0    0.11    4.23    -8.80410    -3.68149    -0.00000
    78  C   4.0    0.11    4.23     3.68149    -8.80410     0.00000
    79  C   4.0    0.11    4.23     8.80410     3.68149     0.00000
    80  C   4.0    0.11    4.23    -3.68149     8.80410     0.00000
    81  H   1.0   -0.06    1.00    -9.40545    -4.69674    -1.68528
    82  H   1.0   -0.06    1.00     4.69674    -9.40545    -1.68528
    83  H   1.0   -0.06    1.00     9.40545     4.69674    -1.68528
    84  H   1.0   -0.06    1.00    -4.69674     9.40545     1.68528
    85  H   1.0   -0.06    1.00    -9.40545    -4.69674     1.68528
    86  H   1.0   -0.06    1.00     4.69674    -9.40545     1.68528
    87  H   1.0   -0.06    1.00     9.40545     4.69674     1.68528
    88  H   1.0   -0.06    1.00    -4.69674     9.40545    -1.68528
    89  HE  2.0   -0.01    0.01     0.00000    -0.00000     0.00000
 
  Z AO/shell   Hii/eV     exponent
  1     Sat Jan 20 17:55:17 CET 2018    EN: 2.200 GAM: 0.531  GM3:-0.4370
     1s    -10.248275    1.266496
  2     Sun Jan 21 00:02:32 CET 2018    EN: 3.000 GAM: 0.420  GM3:-0.3880
     1s    -20.299815    1.657029
     2p      1.788682    1.820207
  6     Sat Jan 20 17:55:17 CET 2018    EN: 2.550 GAM: 0.417  GM3:-0.0654
     2s    -15.292509    2.030071
     2p    -10.408465    1.801676
  7     Sat Jan 20 17:55:17 CET 2018    EN: 3.040 GAM: 0.444  GM3:-0.1301
     2s    -16.687725    2.226550
     2p    -13.175143    1.981921
  8     Sat Jan 20 17:55:17 CET 2018    EN: 3.440 GAM: 0.468  GM3: 0.0937
     2s    -20.924998    2.442614
     2p    -15.243501    2.233841
 no old-style atom pair restraing (fixing) potential
 
 molecular fragmentation (1/2 indicates fragments):
11111111111111111111111111111111111111111111111111111111111111111111111111111111
111111112
# atoms in fragment 1/2:    88     1
 fragment masses (1/2) :      768.71        4.00
CMA distance (Bohr)    :   0.000
constraining FC (au)   :  0.0500
 
             =======================================
             |                                     |
             |        S C C  calculation           |
             |                                     |
             =======================================
 #proc     :                      1
 Ncao      :                    260
 Nao       :                    260
 Nel       :                    290
 T(el)     :   300.0
 intcut    :    25.0
 scfconv   :  0.100E-05
   qconv   :  0.200E-04
 intneglect:  0.100E-07
 broydamp  :      0.400
 Nshell    :                    146
 iter      E             dE          RMSdq      gap      omega  full diag
   1   -171.4209951 -0.171421E+03  0.100E+01    4.71       0.0  T
   2   -172.2004007 -0.779406E+00  0.540E+00    5.08       1.0  T
   3   -172.1840837  0.163169E-01  0.220E+00    4.54       1.0  T
   4   -172.2997614 -0.115678E+00  0.547E-01    5.13       1.0  T
   5   -172.3101809 -0.104195E-01  0.218E-01    5.02       1.0  T
   6   -172.3108994 -0.718456E-03  0.835E-02    5.05       1.0  T
   7   -172.3110486 -0.149244E-03  0.349E-02    5.02       1.0  T
   8   -172.3111068 -0.581793E-04  0.141E-02    5.03       1.0  T
   9   -172.3111144 -0.762277E-05  0.506E-03    5.03       2.1  T
  10   -172.3111139  0.527536E-06  0.401E-03    5.03       2.6  T
  11   -172.3111150 -0.107187E-05  0.600E-04    5.03      17.7  T
  12   -172.3111150 -0.626730E-08  0.304E-04    5.03      34.9  T
  13   -172.3111150 -0.468748E-08  0.144E-04    5.03      73.4  T
  14   -172.3111150 -0.155694E-08  0.261E-05    5.03     406.8  T
speedup  7.31
cpu  time for SCC    4.88 s
wall time for SCC    0.67 s

          eigenvalues
 #    :         133        134        135        136        137        138        139        140
 occ. :        2.000      2.000      2.000      2.000      2.000      2.000      2.000      2.000
 eps  :       -10.404    -10.377    -10.377    -10.367    -10.339    -10.219    -10.155    -10.155
 #    :         141        142        143        144        145        146        147        148
 occ. :        2.000      2.000      2.000      2.000      2.000      0.000      0.000      0.000
 eps  :       -10.066     -9.978     -9.951     -9.951     -9.794     -4.761     -4.686     -4.550
 #    :         149        150        151        152        153        154        155        156
 occ. :        0.000      0.000      0.000      0.000      0.000      0.000      0.000      0.000
 eps  :        -4.550     -4.497     -4.497     -4.381     -4.370     -0.808     -0.808     -0.806
 
 
 Mulliken/CM5 charges        n(s)   n(p)   n(d)
     1 C   0.08149  0.20698   1.080  2.838  0.000
     2 C   0.08149  0.20698   1.080  2.838  0.000
     3 C   0.08149  0.20698   1.080  2.838  0.000
     4 C   0.08149  0.20698   1.080  2.838  0.000
     5 C   0.08149  0.20699   1.080  2.838  0.000
     6 C   0.08149  0.20699   1.080  2.838  0.000
     7 C   0.08149  0.20699   1.080  2.838  0.000
     8 C   0.08149  0.20699   1.080  2.838  0.000
     9 N  -0.04217 -0.27720   1.130  3.912  0.000
    10 N  -0.04217 -0.27720   1.130  3.912  0.000
    11 N  -0.04217 -0.27720   1.130  3.912  0.000
    12 N  -0.04217 -0.27720   1.130  3.912  0.000
    13 N  -0.04217 -0.27720   1.130  3.912  0.000
    14 N  -0.04217 -0.27720   1.130  3.912  0.000
    15 N  -0.04217 -0.27720   1.130  3.912  0.000
    16 N  -0.04217 -0.27720   1.130  3.912  0.000
    17 N  -0.04217 -0.27720   1.130  3.912  0.000
    18 N  -0.04217 -0.27720   1.130  3.912  0.000
    19 N  -0.04217 -0.27720   1.130  3.912  0.000
    20 N  -0.04217 -0.27720   1.130  3.912  0.000
    21 N  -0.04217 -0.27720   1.130  3.912  0.000
    22 N  -0.04217 -0.27720   1.130  3.912  0.000
    23 N  -0.04217 -0.27720   1.130  3.912  0.000
    24 N  -0.04217 -0.27720   1.130  3.912  0.000
    25 C   0.23384  0.40510   1.056  2.710  0.000
    26 C   0.23384  0.40510   1.056  2.710  0.000
    27 C   0.23384  0.40510   1.056  2.710  0.000
    28 C   0.23384  0.40510   1.056  2.710  0.000
    29 C   0.23384  0.40510   1.056  2.710  0.000
    30 C   0.23384  0.40510   1.056  2.710  0.000
    31 C   0.23384  0.40510   1.056  2.710  0.000
    32 C   0.23384  0.40510   1.056  2.710  0.000
    33 O  -0.39962 -0.44171   1.725  4.674  0.000
    34 O  -0.39962 -0.44171   1.725  4.674  0.000
    35 O  -0.39962 -0.44171   1.725  4.674  0.000
    36 O  -0.39962 -0.44171   1.725  4.674  0.000
    37 O  -0.39962 -0.44171   1.725  4.674  0.000
    38 O  -0.39962 -0.44171   1.725  4.674  0.000
    39 O  -0.39962 -0.44171   1.725  4.674  0.000
    40 O  -0.39962 -0.44171   1.725  4.674  0.000
    41 C   0.03323  0.06009   1.071  2.895  0.000
    42 C   0.03323  0.06009   1.071  2.895  0.000
    43 C   0.03323  0.06009   1.071  2.895  0.000
    44 C   0.03323  0.06009   1.071  2.895  0.000
    45 C   0.03323  0.06009   1.071  2.895  0.000
    46 C   0.03323  0.06009   1.071  2.895  0.000
    47 C   0.03323  0.06009   1.071  2.895  0.000
    48 C   0.03323  0.06009   1.071  2.895  0.000
    49 H   0.03815  0.11500   0.962  0.000  0.000
    50 H   0.03815  0.11500   0.962  0.000  0.000
    51 H   0.03815  0.11500   0.962  0.000  0.000
    52 H   0.03815  0.11500   0.962  0.000  0.000
    53 H   0.03815  0.11500   0.962  0.000  0.000
    54 H   0.03815  0.11500   0.962  0.000  0.000
    55 H   0.03815  0.11500   0.962  0.000  0.000
    56 H   0.03815  0.11500   0.962  0.000  0.000
    57 H   0.07254  0.16091   0.927  0.000  0.000
    58 H   0.07254  0.16091   0.927  0.000  0.000
    59 H   0.07254  0.16091   0.927  0.000  0.000
    60 H   0.07254  0.16091   0.927  0.000  0.000
    61 H   0.07254  0.16091   0.927  0.000  0.000
    62 H   0.07254  0.16091   0.927  0.000  0.000
    63 H   0.07254  0.16091   0.927  0.000  0.000
    64 H   0.07254  0.16091   0.927  0.000  0.000
    65 C  -0.04619 -0.13881   1.077  2.970  0.000
    66 C  -0.04619 -0.13881   1.077  2.970  0.000
    67 C  -0.04619 -0.13881   1.077  2.970  0.000
    68 C  -0.04619 -0.13881   1.077  2.970  0.000
    69 H   0.03536  0.09411   0.965  0.000  0.000
    70 H   0.03536  0.09411   0.965  0.000  0.000
    71 H   0.03536  0.09411   0.965  0.000  0.000
    72 H   0.03536  0.09411   0.965  0.000  0.000
    73 H   0.03536  0.09411   0.965  0.000  0.000
    74 H   0.03536  0.09411   0.965  0.000  0.000
    75 H   0.03536  0.09411   0.965  0.000  0.000
    76 H   0.03536  0.09411   0.965  0.000  0.000
    77 C  -0.04619 -0.13881   1.077  2.970  0.000
    78 C  -0.04619 -0.13881   1.077  2.970  0.000
    79 C  -0.04619 -0.13881   1.077  2.970  0.000
    80 C  -0.04619 -0.13881   1.077  2.970  0.000
    81 H   0.03536  0.09411   0.965  0.000  0.000
    82 H   0.03536  0.09411   0.965  0.000  0.000
    83 H   0.03536  0.09411   0.965  0.000  0.000
    84 H   0.03536  0.09411   0.965  0.000  0.000
    85 H   0.03536  0.09411   0.965  0.000  0.000
    86 H   0.03536  0.09411   0.965  0.000  0.000
    87 H   0.03536  0.09411   0.965  0.000  0.000
    88 H   0.03536  0.09411   0.965  0.000  0.000
    89 HE  0.00138 -0.01100   2.000 -0.001  0.000
 
 Wiberg/Mayer (AO) data. WBOs > 0.1 written file <wbo>
 largest (>0.05) Wiberg bond orders for each atom
           total WBO             WBO to atom ...
     1  C   3.963    N   21 0.993    N   17 0.993    C   77 0.946    C    5 0.932
     2  C   3.963    N   22 0.993    N   18 0.993    C   78 0.946    C    6 0.932
     3  C   3.963    N   23 0.993    N   19 0.993    C   79 0.946    C    7 0.932
     4  C   3.963    N   20 0.993    N   24 0.993    C   80 0.946    C    8 0.932
     5  C   3.963    N   13 0.993    N    9 0.993    C   65 0.946    C    1 0.932
     6  C   3.963    N   14 0.993    N   10 0.993    C   66 0.946    C    2 0.932
     7  C   3.963    N   15 0.993    N   11 0.993    C   67 0.946    C    3 0.932
     8  C   3.963    N   12 0.993    N   16 0.993    C   68 0.946    C    4 0.932
     9  N   3.419    C   25 1.097    C   41 0.996    C    5 0.993    O   33 0.149
    10  N   3.419    C   26 1.097    C   42 0.996    C    6 0.993    O   34 0.149
    11  N   3.419    C   27 1.097    C   43 0.996    C    7 0.993    O   35 0.149
    12  N   3.419    C   28 1.097    C   44 0.996    C    8 0.993    O   36 0.149
    13  N   3.419    C   29 1.097    C   45 0.996    C    5 0.993    O   37 0.149
    14  N   3.419    C   30 1.097    C   46 0.996    C    6 0.993    O   38 0.149
    15  N   3.419    C   31 1.097    C   47 0.996    C    7 0.993    O   39 0.149
    16  N   3.419    C   32 1.097    C   48 0.996    C    8 0.993    O   40 0.149
    17  N   3.419    C   25 1.097    C   42 0.996    C    1 0.993    O   33 0.149
    18  N   3.419    C   26 1.097    C   43 0.996    C    2 0.993    O   34 0.149
    19  N   3.419    C   27 1.097    C   48 0.996    C    3 0.993    O   35 0.149
    20  N   3.419    C   28 1.097    C   45 0.996    C    4 0.993    O   36 0.149
    21  N   3.419    C   29 1.097    C   46 0.996    C    1 0.993    O   37 0.149
    22  N   3.419    C   30 1.097    C   47 0.996    C    2 0.993    O   38 0.149
    23  N   3.419    C   31 1.097    C   44 0.996    C    3 0.993    O   39 0.149
    24  N   3.419    C   32 1.097    C   41 0.996    C    4 0.993    O   40 0.149
    25  C   3.965    O   33 1.703    N    9 1.097    N   17 1.097
    26  C   3.965    O   34 1.703    N   10 1.097    N   18 1.097
    27  C   3.965    O   35 1.703    N   11 1.097    N   19 1.097
    28  C   3.965    O   36 1.703    N   12 1.097    N   20 1.097
    29  C   3.965    O   37 1.703    N   13 1.097    N   21 1.097
    30  C   3.965    O   38 1.703    N   14 1.097    N   22 1.097
    31  C   3.965    O   39 1.703    N   15 1.097    N   23 1.097
    32  C   3.965    O   40 1.703    N   16 1.097    N   24 1.097
    33  O   2.063    C   25 1.703    N    9 0.149    N   17 0.149
    34  O   2.063    C   26 1.703    N   10 0.149    N   18 0.149
    35  O   2.063    C   27 1.703    N   11 0.149    N   19 0.149
    36  O   2.063    C   28 1.703    N   12 0.149    N   20 0.149
    37  O   2.063    C   29 1.703    N   13 0.149    N   21 0.149
    38  O   2.063    C   30 1.703    N   14 0.149    N   22 0.149
    39  O   2.063    C   31 1.703    N   15 0.149    N   23 0.149
    40  O   2.063    C   32 1.703    N   16 0.149    N   24 0.149
    41  C   3.969    N    9 0.996    N   24 0.996    H   49 0.965    H   57 0.958
    42  C   3.969    N   10 0.996    N   17 0.996    H   50 0.965    H   58 0.958
    43  C   3.969    N   11 0.996    N   18 0.996    H   51 0.965    H   59 0.958
    44  C   3.969    N   12 0.996    N   23 0.996    H   52 0.965    H   60 0.958
    45  C   3.969    N   13 0.996    N   20 0.996    H   53 0.965    H   61 0.958
    46  C   3.969    N   14 0.996    N   21 0.996    H   54 0.965    H   62 0.958
    47  C   3.969    N   15 0.996    N   22 0.996    H   55 0.965    H   63 0.958
    48  C   3.969    N   16 0.996    N   19 0.996    H   56 0.965    H   64 0.958
    49  H   0.998    C   41 0.965
    50  H   0.998    C   42 0.965
    51  H   0.998    C   43 0.965
    52  H   0.998    C   44 0.965
    53  H   0.998    C   45 0.965
    54  H   0.998    C   46 0.965
    55  H   0.998    C   47 0.965
    56  H   0.998    C   48 0.965
    57  H   0.994    C   41 0.958
    58  H   0.994    C   42 0.958
    59  H   0.994    C   43 0.958
    60  H   0.994    C   44 0.958
    61  H   0.994    C   45 0.958
    62  H   0.994    C   46 0.958
    63  H   0.994    C   47 0.958
    64  H   0.994    C   48 0.958
    65  C   3.988    C   77 1.002    H   69 0.981    H   73 0.981    C    5 0.946
    66  C   3.988    C   78 1.002    H   74 0.981    H   70 0.981    C    6 0.946
    67  C   3.988    C   79 1.002    H   75 0.981    H   71 0.981    C    7 0.946
    68  C   3.988    C   80 1.002    H   72 0.981    H   76 0.981    C    8 0.946
    69  H   0.998    C   65 0.981
    70  H   0.998    C   66 0.981
    71  H   0.998    C   67 0.981
    72  H   0.998    C   68 0.981
    73  H   0.998    C   65 0.981
    74  H   0.998    C   66 0.981
    75  H   0.998    C   67 0.981
    76  H   0.998    C   68 0.981
    77  C   3.988    C   65 1.002    H   81 0.981    H   85 0.981    C    1 0.946
    78  C   3.988    C   66 1.002    H   86 0.981    H   82 0.981    C    2 0.946
    79  C   3.988    C   67 1.002    H   83 0.981    H   87 0.981    C    3 0.946
    80  C   3.988    C   68 1.002    H   84 0.981    H   88 0.981    C    4 0.946
    81  H   0.998    C   77 0.981
    82  H   0.998    C   78 0.981
    83  H   0.998    C   79 0.981
    84  H   0.998    C   80 0.981
    85  H   0.998    C   77 0.981
    86  H   0.998    C   78 0.981
    87  H   0.998    C   79 0.981
    88  H   0.998    C   80 0.981
    89  HE -0.002
 density
 
 cube file module (SG, 7/16)
 cube_pthr     :   0.005
 cube_step     :   0.400
 non-zero P (%):  27.365   nmat:    9285
 Grid Boundaries (x y z) :
   13.5104063388027        13.5104063384387        8.95894557692604     
  -13.5104063389096       -13.5104063382015       -8.95894557598526     
 Total # of points                208080
 writing density.cub
 N    (numint) : ******
cpu  time for cube    1 m  2.0 s
wall time for cube    1 m  0.9 s
 
molecular dipole:
                 x           y           z       tot (Debye)
 q only:       -0.000       0.000       0.000
   full:       -0.000       0.000       0.000       0.000
molecular quadrupole (traceless):
                xx          xy          yy          xz          yz          zz
 q only:       54.096       0.000      54.096      -0.000       0.000    -108.191
  q+dip:       61.409       0.000      61.409      -0.000      -0.000    -122.818
   full:       63.952       0.000      63.952      -0.000      -0.000    -127.904
 SCC converged in                     14  cycles
 
SCC energy    :    -172.3111150
rep           :       1.8264196
ES            :      -0.0231623
AES           :       0.0131319
disp          :      -0.1324997
XB            :       0.0000000
fix           :       0.0000000
total E       :    -170.6171951
atomizationE  :      23.5312876    14766.11
(atE without considerung molecular charge,
 total energy contains solvation terms)
H-L gap (eV)  :          5.0331
 
       ===================================
       |          GMD driver             |
       ===================================
 
 
 MD time /ps        :   50.00
 dt /fs             :    4.00
 SCC accuracy       :    1.00
 temperature /K     :  298.15
 max steps          : 12500
 block length (av.) :   875
 dumpstep(trj) /fs  :   50.00    12
 dumpstep(coords)/fs: 1000.00   250
 minimum runtime(ps):   5.0
 maximum runtime(ps):  50.0
 H atoms mass (amu) :     4
 # deg. of freedom  :   163
 SHAKE on. # bonds  :                   104  all: T
 Berendsen THERMOSTAT on
 EQUILIBRATION mode
         time (ps)    <Epot>      Ekin   <T>   T     Etot
  q data taken from xtbrestart
  CAMM data taken from xtbrestart
      0    0.00      0.00000   0.0480    0.    0.  -170.56921
est. speed in wall clock h for 100 ps :  4.63
    200    0.80   -169.74947   0.0210   83.   81.  -170.57343
    400    1.60   -170.17164   0.0228   86.   88.  -170.57526
    600    2.40   -170.31282   0.0245   87.   95.  -170.57193
    800    3.20   -170.38367   0.0216   88.   84.  -170.57261
block <Epot> / <T> :    -170.59644   88.     drift:  0.99D+02   Tbath : 134.
   1000    4.00   -170.42481   0.0351   92.  136.  -170.54888
   1200    4.80   -170.45142   0.0331   98.  128.  -170.54983
   1400    5.60   -170.47025   0.0341  104.  132.  -170.55113
   1600    6.40   -170.48446   0.0337  107.  131.  -170.55032
block <Epot> / <T> :    -170.58425  132.     drift:  0.99D+02   Tbath : 201.
   1800    7.20   -170.49529   0.0401  111.  156.  -170.53083
   2000    8.00   -170.50268   0.0517  120.  200.  -170.51047
   2200    8.80   -170.50855   0.0591  127.  229.  -170.50655
   2400    9.60   -170.51343   0.0483  133.  187.  -170.52025
   2600   10.40   -170.51753   0.0519  138.  201.  -170.51631
block <Epot> / <T> :    -170.56819  198.     drift:  0.99D+02   Tbath : 298.
   2800   11.20   -170.51990   0.0682  147.  264.  -170.46067
   3000   12.00   -170.52133   0.0820  157.  318.  -170.46147
   3200   12.80   -170.52256   0.0783  166.  303.  -170.45604
   3400   13.60   -170.52362   0.0783  174.  304.  -170.46145
block <Epot> / <T> :    -170.54227  292.     drift:  0.18D-01   Tbath : 298.
   3600   14.40   -170.52461   0.0745  181.  289.  -170.45408
   3800   15.20   -170.52556   0.0784  187.  304.  -170.45625
   4000   16.00   -170.52641   0.0848  192.  329.  -170.46804
   4200   16.80   -170.52717   0.0766  197.  297.  -170.46748
block <Epot> / <T> :    -170.54237  298.     drift:  0.15D-01   Tbath : 298.
   4400   17.60   -170.52784   0.0748  202.  290.  -170.46997
   4600   18.40   -170.52843   0.0756  206.  293.  -170.46331
   4800   19.20   -170.52899   0.0780  210.  302.  -170.46218
   5000   20.00   -170.52948   0.0694  214.  269.  -170.46263
   5200   20.80   -170.52997   0.0800  217.  310.  -170.46553
block <Epot> / <T> :    -170.54174  298.     drift:  0.79D-02   Tbath : 298.
   5400   21.60   -170.53039   0.0734  220.  285.  -170.47827
   5600   22.40   -170.53080   0.0681  223.  264.  -170.46617
   5800   23.20   -170.53114   0.0841  225.  326.  -170.46014
   6000   24.00   -170.53146   0.0674  228.  261.  -170.46668
block <Epot> / <T> :    -170.54101  298.     drift:  0.44D-03   Tbath : 298.
 GOOD AVERAGES REACHED
 average properties 
 Epot               :  -170.559464585355     
 Epot (accurate SCC):  -170.559470857955     
 Ekin               :  5.914730440868955E-002
 Etot               :  -170.500317280946     
 T                  :   229.168336865241     
 normal exit of md()
 
 MD time /ps        :   50.00
 dt /fs             :    4.00
 SCC accuracy       :    1.00
 temperature /K     :  298.15
 max steps          : 50000
 block length (av.) :   875
 dumpstep(trj) /fs  :   50.00    12
 dumpstep(coords)/fs: 1000.00   250
 minimum runtime(ps):  50.0
 maximum runtime(ps): 200.0
 H atoms mass (amu) :     4
 # deg. of freedom  :   163
 SHAKE on. # bonds  :                   104  all: T
 Berendsen THERMOSTAT on
 GMD mode
 RESTART
         time (ps)    <Epot>      Ekin   <T>   T     Etot
  q data taken from xtbrestart
  CAMM data taken from xtbrestart
 reading input structure for Re-R0 averaging
      0    0.00      0.00000   0.0835    0.    0.  -170.45791
est. speed in wall clock h for 100 ps :  4.82
    200    0.80   -169.69150   0.0813  297.  315.  -170.46003
    400    1.60   -170.11511   0.0818  299.  317.  -170.46055
    600    2.40   -170.25668   0.0766  298.  297.  -170.46137
    800    3.20   -170.32767   0.0757  299.  293.  -170.46486
block <Epot> / <T> :    -170.54069  299.     drift:  0.99D+02   Tbath : 298.
   1000    4.00   -170.37035   0.0842  299.  326.  -170.45924
   1200    4.80   -170.39877   0.0693  298.  268.  -170.46595
   1400    5.60   -170.41915   0.0768  298.  298.  -170.46739
   1600    6.40   -170.43442   0.0777  298.  301.  -170.46296
block <Epot> / <T> :    -170.54124  298.     drift:  0.99D+02   Tbath : 298.
   1800    7.20   -170.44625   0.0831  298.  322.  -170.46123
   2000    8.00   -170.45573   0.0687  298.  266.  -170.46331
   2200    8.80   -170.46344   0.0714  298.  277.  -170.46965
   2400    9.60   -170.46993   0.0856  298.  332.  -170.46463
   2600   10.40   -170.47538   0.0774  298.  300.  -170.46602
block <Epot> / <T> :    -170.54099  298.     drift:  0.99D+02   Tbath : 298.
   2800   11.20   -170.48014   0.0787  298.  305.  -170.46161
   3000   12.00   -170.48428   0.0797  298.  309.  -170.47257
   3200   12.80   -170.48782   0.0701  298.  271.  -170.45808
   3400   13.60   -170.49096   0.0871  298.  337.  -170.46228
block <Epot> / <T> :    -170.54185  299.     drift: -0.32D-03   Tbath : 298.
   3600   14.40   -170.49388   0.0774  298.  300.  -170.46645
   3800   15.20   -170.49647   0.0808  298.  313.  -170.46209
   4000   16.00   -170.49877   0.0744  298.  288.  -170.46513
   4200   16.80   -170.50080   0.0788  298.  305.  -170.47099
block <Epot> / <T> :    -170.54209  297.     drift: -0.34D-03   Tbath : 298.
   4400   17.60   -170.50261   0.0774  298.  300.  -170.46131
   4600   18.40   -170.50430   0.0813  298.  315.  -170.46052
   4800   19.20   -170.50585   0.0776  298.  301.  -170.46539
   5000   20.00   -170.50731   0.0795  298.  308.  -170.46673
   5200   20.80   -170.50867   0.0845  298.  327.  -170.45794
block <Epot> / <T> :    -170.54198  299.     drift: -0.32D-03   Tbath : 298.
   5400   21.60   -170.50991   0.0832  298.  322.  -170.45729
   5600   22.40   -170.51109   0.0670  298.  259.  -170.47532
   5800   23.20   -170.51220   0.0787  298.  305.  -170.46601
   6000   24.00   -170.51319   0.0851  298.  330.  -170.46487
block <Epot> / <T> :    -170.54244  298.     drift: -0.17D-03   Tbath : 298.
   6200   24.80   -170.51410   0.0749  298.  290.  -170.46596
   6400   25.60   -170.51496   0.0747  298.  289.  -170.46822
   6600   26.40   -170.51577   0.0709  298.  275.  -170.46709
   6800   27.20   -170.51653   0.0696  298.  269.  -170.46207
   7000   28.00   -170.51724   0.0764  298.  296.  -170.46648
block <Epot> / <T> :    -170.54151  298.     drift:  0.13D-03   Tbath : 298.
   7200   28.80   -170.51792   0.0816  298.  316.  -170.45564
   7400   29.60   -170.51855   0.0838  298.  325.  -170.46737
   7600   30.40   -170.51913   0.0611  298.  237.  -170.46185
   7800   31.20   -170.51969   0.0695  298.  269.  -170.47347
block <Epot> / <T> :    -170.54118  298.     drift:  0.34D-03   Tbath : 298.
   8000   32.00   -170.52023   0.0649  298.  251.  -170.46576
   8200   32.80   -170.52073   0.0703  298.  272.  -170.45560
   8400   33.60   -170.52121   0.0749  298.  290.  -170.46202
   8600   34.40   -170.52166   0.0710  298.  275.  -170.45976
block <Epot> / <T> :    -170.54087  298.     drift:  0.51D-03   Tbath : 298.
   8800   35.20   -170.52210   0.0786  298.  304.  -170.46119
   9000   36.00   -170.52251   0.0823  298.  319.  -170.46446
   9200   36.80   -170.52291   0.0753  298.  292.  -170.46524
   9400   37.60   -170.52330   0.0830  298.  322.  -170.46379
   9600   38.40   -170.52368   0.0864  298.  335.  -170.45914
block <Epot> / <T> :    -170.54106  298.     drift:  0.17D-03   Tbath : 298.
   9800   39.20   -170.52406   0.0790  298.  306.  -170.46317
  10000   40.00   -170.52440   0.0777  298.  301.  -170.46882
  10200   40.80   -170.52473   0.0733  298.  284.  -170.46006
  10400   41.60   -170.52506   0.0873  298.  338.  -170.46449
block <Epot> / <T> :    -170.54172  298.     drift: -0.18D-03   Tbath : 298.
  10600   42.40   -170.52537   0.0763  298.  296.  -170.47012
  10800   43.20   -170.52567   0.0795  298.  308.  -170.45240
  11000   44.00   -170.52595   0.0833  298.  323.  -170.45944
  11200   44.80   -170.52622   0.0855  298.  331.  -170.45996
block <Epot> / <T> :    -170.54115  298.     drift: -0.15D-03   Tbath : 298.
  11400   45.60   -170.52648   0.0788  298.  305.  -170.46611
  11600   46.40   -170.52674   0.0955  298.  370.  -170.45985
  11800   47.20   -170.52698   0.0712  298.  276.  -170.46736
  12000   48.00   -170.52722   0.0680  298.  264.  -170.46031
  12200   48.80   -170.52746   0.0767  298.  297.  -170.46200
block <Epot> / <T> :    -170.54134  298.     drift: -0.28D-04   Tbath : 298.
  12400   49.60   -170.52769   0.0833  298.  323.  -170.46560
 GOOD AVERAGES REACHED
 average properties 
 Epot               :  -170.541440476355     
 Epot (accurate SCC):  -170.541458705223     
 Ekin               :  7.695554604447101E-002
 Etot               :  -170.464484930311     
 T                  :   298.167003143714     
 corrections to Re Z-matrix:
   1  C     0.000000      0.0000      0.0000     0    0    0
   2  C    -0.029287      0.0000      0.0000     1    0    0
   3  C    -0.030069     -0.0390      0.0000     2    1    0
   4  C    -0.029242     -0.0043      0.0443     1    2    3
   5  C     0.000000     -0.0768      0.0233     1    2    3
   6  C     0.000000      0.0055     -0.0094     2    1    3
   7  C     0.000000     -0.0078     -0.0210     3    2    1
   8  C     0.000000     -0.1183     -0.0167     4    1    2
   9  N     0.000000     -0.0595      0.0530     5    1    2
  10  N     0.000000     -0.0658     -0.1627     6    2    1
  11  N     0.000000     -0.0418      0.2369     7    3    2
  12  N     0.000000     -0.0529     -0.2939     8    4    1
  13  N     0.000000     -0.0423      0.1718     5    1    2
  14  N     0.000000     -0.0319     -0.0670     6    2    1
  15  N     0.000000     -0.0661      0.3282     7    3    2
  16  N     0.000000     -0.0377     -0.3848     8    4    1
  17  N     0.000000      0.1185     -0.0779     1    2    3
  18  N     0.000000     -0.0503      0.2761     2    1    3
  19  N     0.000000      0.2177     -0.2516     3    2    1
  20  N     0.000000      0.1735     -0.0062     4    1    2
  21  N     0.000000     -0.0267      0.2794     1    2    3
  22  N     0.000000      0.1695      0.1975     2    1    3
  23  N     0.000000     -0.0692     -0.4153     3    2    1
  24  N     0.000000     -0.0258     -0.2661     4    1    2
  25  C     0.000000     -0.5510      1.4976     9    5    1
  26  C     0.000000     -0.6109      1.6112    10    6    2
  27  C     0.000000     -0.5772      1.6108    11    7    3
  28  C     0.000000     -0.5860      0.4143    12    8    4
  29  C     0.000000     -0.5940      0.2768    13    5    1
  30  C     0.000000     -0.5976      0.0661    14    6    2
  31  C     0.000000     -0.5448      0.1585    15    7    3
  32  C     0.000000     -0.6061      1.7970    16    8    4
  33  O     0.000000     -0.2904      0.4551    25    9    5
  34  O     0.000000     -0.2718      0.3018    26   10    6
  35  O     0.000000     -0.2896      0.2534    27   11    7
  36  O     0.000000     -0.2901     -0.3769    28   12    8
  37  O     0.000000     -0.2798     -0.4108    29   13    5
  38  O     0.000000     -0.2822     -0.1954    30   14    6
  39  O     0.000000     -0.2945     -0.1638    31   15    7
  40  O     0.000000     -0.2668      0.1841    32   16    8
  41  C     0.000000     -1.2411      0.3454     9    5    1
  42  C     0.000000     -1.3064      0.0437    10    6    2
  43  C     0.000000     -1.3529      0.6339    11    7    3
  44  C     0.000000     -1.3268     -0.7136    12    8    4
  45  C     0.000000     -1.3307      0.0359    13    5    1
  46  C     0.000000     -1.2464     -0.4501    14    6    2
  47  C     0.000000     -1.1954      0.3010    15    7    3
  48  C     0.000000     -1.2640     -0.2924    16    8    4
  49  H     0.000000     -0.2297     -0.4829    41    9    5
  50  H     0.000000     -0.2672     -0.0639    42   10    6
  51  H     0.000000     -0.2589     -0.8160    43   11    7
  52  H     0.000000     -0.2340      0.9460    44   12    8
  53  H     0.000000     -0.2731      0.0611    45   13    5
  54  H     0.000000     -0.2328      0.5882    46   14    6
  55  H     0.000000     -0.2535     -0.2050    47   15    7
  56  H     0.000000     -0.2606      0.3000    48   16    8
  57  H     0.000000      0.2549     -0.1300    41    9    5
  58  H     0.000000      0.3216      0.3271    42   10    6
  59  H     0.000000      0.2451     -0.3990    43   11    7
  60  H     0.000000      0.2341      0.5546    44   12    8
  61  H     0.000000      0.3185     -0.3759    45   13    5
  62  H     0.000000      0.2531      0.1631    46   14    6
  63  H     0.000000      0.3038     -0.5422    47   15    7
  64  H     0.000000      0.3318      0.6362    48   16    8
  65  C     0.000000     -0.1261      0.1066     5    1    2
  66  C     0.000000     -0.1365     -0.1349     6    2    1
  67  C     0.000000     -0.1342      0.2912     7    3    2
  68  C     0.000000     -0.1404     -0.2992     8    4    1
  69  H     0.000000     -0.0763     -0.0085    65    5    1
  70  H     0.000000     -0.0476     -0.1533    66    6    2
  71  H     0.000000     -0.0997      0.0348    67    7    3
  72  H     0.000000     -0.0470      0.1366    68    8    4
  73  H     0.000000     -0.0859     -0.0349    65    5    1
  74  H     0.000000     -0.0878     -0.1372    66    6    2
  75  H     0.000000     -0.0869      0.0536    67    7    3
  76  H     0.000000     -0.0794      0.1456    68    8    4
  77  C     0.000000     -0.1339     -0.0155    65    5    1
  78  C     0.000000     -0.1313     -0.1226    66    6    2
  79  C     0.000000     -0.1408      0.0441    67    7    3
  80  C     0.000000     -0.1285      0.1260    68    8    4
  81  H     0.000000     -0.0880      0.0103    77   65    5
  82  H     0.000000     -0.1063      0.1472    78   66    6
  83  H     0.000000     -0.0733     -0.0524    79   67    7
  84  H     0.000000     -0.1080     -0.1726    80   68    8
  85  H     0.000000     -0.0875      0.0241    77   65    5
  86  H     0.000000     -0.0698      0.1357    78   66    6
  87  H     0.000000     -0.0875     -0.0351    79   67    7
  88  H     0.000000     -0.0671     -0.1476    80   68    8
  89  HE    0.010574      0.8314      0.5509    31   15    7
Be      (a,b,c, in MHz) :     74.754     74.754     57.377
Be - B0 (a,b,c, in MHz) :     -0.631     -0.594     -0.501
 corrected structure on <xtb_mdav.coord>
 normal exit of md()
 
speedup  6.91
cpu  time for all    1 d  0 h 59 m 43.2 s
wall time for all    0 d  3 h 36 m 52.9 s
