 
        ______________________________________
       |                                      |
       |           ==================         |
       |                 x T B                |
       |           ==================         |
       |               S. Grimme              |
       |        Universitaet Bonn, MCTC       |
       |         2015-18, Version 5.0         |
       |      Sat Jan 20 11:00:33 CET 2018    |
       |______________________________________|
 
        This code comes without any warranty
        for non-commercial, academia use only.
        Cite GFN-xTB work as:
        S. Grimme, C. Bannwarth, P. Shushkov
        JCTC, 13 (2017) 1989-2009
        for GFN2:
        C. Bannwarth, S. Ehlert, S. Grimme
        to be published.
        sTDA-xTB:
        S. Grimme  &  C. Bannwarth, JCP 145 (2016) 054103
        in the mass-spec context additionally:
        V. Asgeirsson, C.Bauer, S. Grimme, Chem. Sci. 8 (2017) 4879
 
        with help from
        P. Shushkov, G. Brandenburg, S. Dohm, J. Pisarek,
        F. März, M. Checinski, S. Ehrlich, S. Spicher, 
        P. Pracht, E. Caldeweyher, S. Ehlert, and C. Bannwarth.
 
        usage        :
        xtb <coord_file> [options]
        where <coord_file> is a valid file of TM)
        (*coord, Bohr) or xmol (*xyz, Angstroem)
        format.

        options:
        -chrg <int>   : molecular charge
        -uhf  <int>   : # of unpaired electrons(=2*S)
        -nox          : skip second, extended part in sTDA-xTB
        -pop          : do population analysis
                      : (default for -nox)
        -mowr <real>  : cut MO write above (def.3 Eh)
        -molden       : write formatted molden file
        -parx <file>  : read parameters for sTDA-xTB
                        calc (def:~/.param_stda2.xtb)
        -parv <file>  : read parameters for vTB part in
                        sTDA-xTB (def: ~/.param_stda1.xtb)
        -xtemp <real> : el. temp for xTB (def. 0 K)
        -etemp <real> : el. temp for GFN (def. 300 K)
        -fod          : do a xTB calc. of the FOD
                        and write molden.input file 
                        with appropriate occupations
                        for plotting. Def. T=12500 K
 
        -gfn          : use GFN-xTB
        -grad         : GFN-xTB gradient
        -acc <real>   : GFN-xTB accuracy (def. 1.0)
        -opt [level]  : optimize at GFN-xTB
                      : level=crude,vloose,loose,
                      :       tight,vtight
        -hess         : compute Hessian at GFN-xTB
        -ohess        : optimize and compute Hessian
        -omd          : optimize and do MD
        -siman        : conformational search
        -screen       : opt. loop over ensemble
        -gmd          : annealed MD for GMD procedure
        -modef        : vib mode following
        -gbsa [string1] [string2]
                        use GBSA implicit solvent
                        for solvent [string1] and
                        solvation state [string2]=
                        reference, bar1M (default=1M)
        additional GFN/opt/MD/siman options read from
        $XTBHOME/.xtbrc or $set in coordinate file
 
       spin and charge state information can be on:
       <.CHRG> (charge) and <.UHF> (=nalpha-nbeta)
       -uhf and -chrg override the file info.
       useful machine settings:
       setenv MKL_NUM_THREADS <NCORE_ON_YOUR_MACHINE>
       setenv OMP_STACKSIZE 500m
       limit stacksize unlimited
 
       total energies in Eh, gaps/HL energies in eV
       please read REVISION and HOWTO files carefully
 =============================
  # OMP threads =                     1
 =============================
 
 xtbhome directory:/Applications/xtb/
 
 argument                      1 :-opt
 argument                      2 :tight
 
 number of atoms            :    73
 number of electrons        :   250
 charge                     :  0
 spin                       : 0.0
 first test random number   :  0.9799
 
 
KAB for pair M(3d)-M(3d) :  1.1000
KAB for pair M(4d)-M(4d) :  1.2000
KAB for pair M(5d)-M(5d) :  1.2000
 -----------------------------------------
  G F N (Geometry, Frequency, Non-covalent)
        parametrization, version                     2
 /Applications/xtb/.param_gfn2.xtb
 -----------------------------------------
      method parameters     
 k(s)        :  1.8500
 k(p)        :  2.2500
 k(d)        :  2.0000
 k(f)        :  0.0000
 alphaj      :  1.0000
 kEN (H0ij)  : -2.3620
 D3 a1       :  0.6900
 D3 a2       :  4.0530
 D3 s8       :  2.0000
 D3atm       :  1.0000
 AESdamp     :  5.5000
 AESrad      :  1.9230
 expscalexp  : -0.2500
 
     -------------------------
     ! NO SOLVENT MODEL USED !
     -------------------------
 
 doing EN charges ...
 sum q :  0.4884981D-14
 point charge moment (au)
     X       Y       Z   
  -0.0000  -0.0000   0.0000  total (Debye):    0.000
 
            Z      q(EN)   CN      Cart. coordinates
     1  C   4.0    0.21    4.30    -6.04446    -3.08090     0.00000
     2  C   4.0    0.21    4.30     3.08090    -6.04446     0.00000
     3  C   4.0    0.21    4.30     6.04446     3.08090     0.00000
     4  C   4.0    0.21    4.30    -3.08090     6.04446     0.00000
     5  C   4.0    0.21    4.30    -6.78185    -0.19003     0.00000
     6  C   4.0    0.21    4.30     0.19003    -6.78185     0.00000
     7  C   4.0    0.21    4.30     6.78185     0.19003     0.00000
     8  C   4.0    0.21    4.30    -0.19003     6.78185     0.00000
     9  N   5.0   -0.20    3.22    -5.72593     0.72705    -2.34422
    10  N   5.0   -0.20    3.22    -0.72705    -5.72593    -2.34422
    11  N   5.0   -0.20    3.22     5.72593    -0.72705    -2.34422
    12  N   5.0   -0.20    3.22     0.72705     5.72593     2.34422
    13  N   5.0   -0.20    3.22    -5.72593     0.72705     2.34422
    14  N   5.0   -0.20    3.22    -0.72705    -5.72593     2.34422
    15  N   5.0   -0.20    3.22     5.72593    -0.72705     2.34422
    16  N   5.0   -0.20    3.22     0.72705     5.72593    -2.34422
    17  N   5.0   -0.20    3.22    -4.67855    -3.38066    -2.34481
    18  N   5.0   -0.20    3.22     3.38066    -4.67855    -2.34481
    19  N   5.0   -0.20    3.22     4.67855     3.38066    -2.34481
    20  N   5.0   -0.20    3.22    -3.38066     4.67855     2.34481
    21  N   5.0   -0.20    3.22    -4.67855    -3.38066     2.34481
    22  N   5.0   -0.20    3.22     3.38066    -4.67855     2.34481
    23  N   5.0   -0.20    3.22     4.67855     3.38066     2.34481
    24  N   5.0   -0.20    3.22    -3.38066     4.67855    -2.34481
    25  C   4.0    0.44    3.25    -4.68994    -1.19582    -3.82125
    26  C   4.0    0.44    3.25     1.19582    -4.68994    -3.82125
    27  C   4.0    0.44    3.25     4.68994     1.19582    -3.82125
    28  C   4.0    0.44    3.25    -1.19582     4.68994     3.82125
    29  C   4.0    0.44    3.25    -4.68994    -1.19582     3.82125
    30  C   4.0    0.44    3.25     1.19582    -4.68994     3.82125
    31  C   4.0    0.44    3.25     4.68994     1.19582     3.82125
    32  C   4.0    0.44    3.25    -1.19582     4.68994    -3.82125
    33  O   6.0   -0.34    1.06    -4.00380    -1.01989    -5.99145
    34  O   6.0   -0.34    1.06     1.01989    -4.00380    -5.99145
    35  O   6.0   -0.34    1.06     4.00380     1.01989    -5.99145
    36  O   6.0   -0.34    1.06    -1.01989     4.00380     5.99145
    37  O   6.0   -0.34    1.06    -4.00380    -1.01989     5.99145
    38  O   6.0   -0.34    1.06     1.01989    -4.00380     5.99145
    39  O   6.0   -0.34    1.06     4.00380     1.01989     5.99145
    40  O   6.0   -0.34    1.06    -1.01989     4.00380    -5.99145
    41  C   4.0    0.25    4.13    -5.62214     3.33699    -3.16013
    42  C   4.0    0.25    4.13    -3.33699    -5.62214    -3.16013
    43  C   4.0    0.25    4.13     5.62214    -3.33699    -3.16013
    44  C   4.0    0.25    4.13     3.33699     5.62214     3.16013
    45  C   4.0    0.25    4.13    -5.62214     3.33699     3.16013
    46  C   4.0    0.25    4.13    -3.33699    -5.62214     3.16013
    47  C   4.0    0.25    4.13     5.62214    -3.33699     3.16013
    48  C   4.0    0.25    4.13     3.33699     5.62214    -3.16013
    49  H   1.0   -0.05    1.00    -7.30681     4.33724    -2.48792
    50  H   1.0   -0.05    1.00    -4.33724    -7.30681    -2.48792
    51  H   1.0   -0.05    1.00     7.30681    -4.33724    -2.48792
    52  H   1.0   -0.05    1.00     4.33724     7.30681     2.48792
    53  H   1.0   -0.05    1.00    -7.30681     4.33724     2.48792
    54  H   1.0   -0.05    1.00    -4.33724    -7.30681     2.48792
    55  H   1.0   -0.05    1.00     7.30681    -4.33724     2.48792
    56  H   1.0   -0.05    1.00     4.33724     7.30681    -2.48792
    57  H   1.0   -0.05    1.01    -5.59151     3.31730    -5.22606
    58  H   1.0   -0.05    1.01    -3.31730    -5.59151    -5.22606
    59  H   1.0   -0.05    1.01     5.59151    -3.31730    -5.22606
    60  H   1.0   -0.05    1.01     3.31730     5.59151     5.22606
    61  H   1.0   -0.05    1.01    -5.59151     3.31730     5.22606
    62  H   1.0   -0.05    1.01    -3.31730    -5.59151     5.22606
    63  H   1.0   -0.05    1.01     5.59151    -3.31730     5.22606
    64  H   1.0   -0.05    1.01     3.31730     5.59151    -5.22606
    65  H   1.0   -0.05    1.00    -8.84201     0.09708     0.00000
    66  H   1.0   -0.05    1.00    -0.09708    -8.84201     0.00000
    67  H   1.0   -0.05    1.00     8.84201    -0.09708     0.00000
    68  H   1.0   -0.05    1.00     0.09708     8.84201     0.00000
    69  H   1.0   -0.05    1.00    -7.71579    -4.31920     0.00000
    70  H   1.0   -0.05    1.00     4.31920    -7.71579     0.00000
    71  H   1.0   -0.05    1.00     7.71579     4.31920     0.00000
    72  H   1.0   -0.05    1.00    -4.31920     7.71579     0.00000
    73  HE  2.0   -0.01    0.01     0.00000     0.00000     0.00000
 
  Z AO/shell   Hii/eV     exponent
  1     Sat Jan 20 17:55:17 CET 2018    EN: 2.200 GAM: 0.531  GM3:-0.4370
     1s    -10.248275    1.266496
  2     Sun Jan 21 00:02:32 CET 2018    EN: 3.000 GAM: 0.420  GM3:-0.3880
     1s    -20.299815    1.657029
     2p      1.788682    1.820207
  6     Sat Jan 20 17:55:17 CET 2018    EN: 2.550 GAM: 0.417  GM3:-0.0654
     2s    -15.292509    2.030071
     2p    -10.408465    1.801676
  7     Sat Jan 20 17:55:17 CET 2018    EN: 3.040 GAM: 0.444  GM3:-0.1301
     2s    -16.687725    2.226550
     2p    -13.175143    1.981921
  8     Sat Jan 20 17:55:17 CET 2018    EN: 3.440 GAM: 0.468  GM3: 0.0937
     2s    -20.924998    2.442614
     2p    -15.243501    2.233841
 no old-style atom pair restraing (fixing) potential
 
 molecular fragmentation (1/2 indicates fragments):
1111111111111111111111111111111111111111111111111111111111111111111111112
# atoms in fragment 1/2:    72     1
 fragment masses (1/2) :      664.56        4.00
CMA distance (Bohr)    :   0.000
constraining FC (au)   :  0.0500
 
             =======================================
             |                                     |
             |        S C C  calculation           |
             |                                     |
             =======================================
 #proc     :                      1
 Ncao      :                    220
 Nao       :                    220
 Nel       :                    250
 T(el)     :   300.0
 intcut    :    25.0
 scfconv   :  0.100E-05
   qconv   :  0.200E-04
 intneglect:  0.100E-07
 broydamp  :      0.400
 Nshell    :                    122
 iter      E             dE          RMSdq      gap      omega  full diag
   1   -149.4062332 -0.149406E+03  0.976E+00    4.62       0.0  T
   2   -149.8339516 -0.427718E+00  0.537E+00    5.13       1.0  T
   3   -149.7723903  0.615613E-01  0.214E+00    4.54       1.0  T
   4   -149.9318244 -0.159434E+00  0.591E-01    5.12       1.0  T
   5   -149.9393090 -0.748455E-02  0.207E-01    5.08       1.0  T
   6   -149.9397292 -0.420244E-03  0.758E-02    5.10       1.0  T
   7   -149.9397863 -0.571387E-04  0.278E-02    5.09       1.0  T
   8   -149.9397959 -0.954757E-05  0.827E-03    5.09       1.4  T
   9   -149.9397967 -0.756197E-06  0.455E-03    5.09       2.6  T
  10   -149.9397969 -0.256758E-06  0.141E-03    5.09       8.3  T
  11   -149.9397969 -0.153822E-07  0.755E-04    5.09      15.5  T
  12   -149.9397970 -0.273182E-07  0.262E-04    5.09      44.7  T
  13   -149.9397970 -0.389565E-08  0.801E-05    5.09     146.1  T
  14   -149.9397970 -0.144922E-09  0.380E-05    5.09     308.2  T
speedup  6.50
cpu  time for SCC    2.82 s
wall time for SCC    0.43 s

          eigenvalues
 #    :         113        114        115        116        117        118        119        120
 occ. :        2.000      2.000      2.000      2.000      2.000      2.000      2.000      2.000
 eps  :       -10.433    -10.433    -10.420    -10.376    -10.371    -10.218    -10.186    -10.186
 #    :         121        122        123        124        125        126        127        128
 occ. :        2.000      2.000      2.000      2.000      2.000      0.000      0.000      0.000
 eps  :       -10.131    -10.120    -10.120    -10.080    -10.039     -4.944     -4.877     -4.697
 #    :         129        130        131        132        133        134        135        136
 occ. :        0.000      0.000      0.000      0.000      0.000      0.000      0.000      0.000
 eps  :        -4.697     -4.692     -4.692     -4.578     -4.466     -0.462     -0.432     -0.418
 
 
 Mulliken/CM5 charges        n(s)   n(p)   n(d)
     1 C   0.06658  0.14393   1.082  2.851  0.000
     2 C   0.06658  0.14393   1.082  2.851  0.000
     3 C   0.06658  0.14393   1.082  2.851  0.000
     4 C   0.06658  0.14393   1.082  2.851  0.000
     5 C   0.06660  0.14401   1.082  2.851  0.000
     6 C   0.06660  0.14401   1.082  2.851  0.000
     7 C   0.06660  0.14401   1.082  2.851  0.000
     8 C   0.06660  0.14401   1.082  2.851  0.000
     9 N  -0.03804 -0.27120   1.133  3.905  0.000
    10 N  -0.03804 -0.27120   1.133  3.905  0.000
    11 N  -0.03804 -0.27120   1.133  3.905  0.000
    12 N  -0.03804 -0.27120   1.133  3.905  0.000
    13 N  -0.03804 -0.27120   1.133  3.905  0.000
    14 N  -0.03804 -0.27120   1.133  3.905  0.000
    15 N  -0.03804 -0.27120   1.133  3.905  0.000
    16 N  -0.03804 -0.27120   1.133  3.905  0.000
    17 N  -0.03807 -0.27115   1.133  3.905  0.000
    18 N  -0.03807 -0.27115   1.133  3.905  0.000
    19 N  -0.03807 -0.27115   1.133  3.905  0.000
    20 N  -0.03807 -0.27115   1.133  3.905  0.000
    21 N  -0.03807 -0.27115   1.133  3.905  0.000
    22 N  -0.03807 -0.27115   1.133  3.905  0.000
    23 N  -0.03807 -0.27115   1.133  3.905  0.000
    24 N  -0.03807 -0.27115   1.133  3.905  0.000
    25 C   0.22915  0.39549   1.062  2.709  0.000
    26 C   0.22915  0.39549   1.062  2.709  0.000
    27 C   0.22915  0.39549   1.062  2.709  0.000
    28 C   0.22915  0.39549   1.062  2.709  0.000
    29 C   0.22915  0.39549   1.062  2.709  0.000
    30 C   0.22915  0.39549   1.062  2.709  0.000
    31 C   0.22915  0.39549   1.062  2.709  0.000
    32 C   0.22915  0.39549   1.062  2.709  0.000
    33 O  -0.39309 -0.43314   1.733  4.660  0.000
    34 O  -0.39309 -0.43314   1.733  4.660  0.000
    35 O  -0.39309 -0.43314   1.733  4.660  0.000
    36 O  -0.39309 -0.43314   1.733  4.660  0.000
    37 O  -0.39309 -0.43314   1.733  4.660  0.000
    38 O  -0.39309 -0.43314   1.733  4.660  0.000
    39 O  -0.39309 -0.43314   1.733  4.660  0.000
    40 O  -0.39309 -0.43314   1.733  4.660  0.000
    41 C   0.03346  0.05555   1.073  2.894  0.000
    42 C   0.03346  0.05555   1.073  2.894  0.000
    43 C   0.03346  0.05555   1.073  2.894  0.000
    44 C   0.03346  0.05555   1.073  2.894  0.000
    45 C   0.03346  0.05555   1.073  2.894  0.000
    46 C   0.03346  0.05555   1.073  2.894  0.000
    47 C   0.03346  0.05555   1.073  2.894  0.000
    48 C   0.03346  0.05555   1.073  2.894  0.000
    49 H   0.03661  0.11325   0.963  0.000  0.000
    50 H   0.03661  0.11325   0.963  0.000  0.000
    51 H   0.03661  0.11325   0.963  0.000  0.000
    52 H   0.03661  0.11325   0.963  0.000  0.000
    53 H   0.03661  0.11325   0.963  0.000  0.000
    54 H   0.03661  0.11325   0.963  0.000  0.000
    55 H   0.03661  0.11325   0.963  0.000  0.000
    56 H   0.03661  0.11325   0.963  0.000  0.000
    57 H   0.07431  0.16080   0.926  0.000  0.000
    58 H   0.07431  0.16080   0.926  0.000  0.000
    59 H   0.07431  0.16080   0.926  0.000  0.000
    60 H   0.07431  0.16080   0.926  0.000  0.000
    61 H   0.07431  0.16080   0.926  0.000  0.000
    62 H   0.07431  0.16080   0.926  0.000  0.000
    63 H   0.07431  0.16080   0.926  0.000  0.000
    64 H   0.07431  0.16080   0.926  0.000  0.000
    65 H   0.02893  0.10768   0.971  0.000  0.000
    66 H   0.02893  0.10768   0.971  0.000  0.000
    67 H   0.02893  0.10768   0.971  0.000  0.000
    68 H   0.02893  0.10768   0.971  0.000  0.000
    69 H   0.02896  0.10771   0.971  0.000  0.000
    70 H   0.02896  0.10771   0.971  0.000  0.000
    71 H   0.02896  0.10771   0.971  0.000  0.000
    72 H   0.02896  0.10771   0.971  0.000  0.000
    73 HE  0.00114 -0.01013   2.000 -0.001  0.000
 
 Wiberg/Mayer (AO) data. WBOs > 0.1 written file <wbo>
 largest (>0.05) Wiberg bond orders for each atom
           total WBO             WBO to atom ...
     1  C   3.976    N   17 0.996    N   21 0.996    C    5 0.951    H   69 0.950
     2  C   3.976    N   18 0.996    N   22 0.996    C    6 0.951    H   70 0.950
     3  C   3.976    N   23 0.996    N   19 0.996    C    7 0.951    H   71 0.950
     4  C   3.976    N   20 0.996    N   24 0.996    C    8 0.951    H   72 0.950
     5  C   3.976    N    9 0.996    N   13 0.996    C    1 0.951    H   65 0.950
     6  C   3.976    N   10 0.996    N   14 0.996    C    2 0.951    H   66 0.950
     7  C   3.976    N   15 0.996    N   11 0.996    C    3 0.951    H   67 0.950
     8  C   3.976    N   12 0.996    N   16 0.996    C    4 0.951    H   68 0.950
     9  N   3.414    C   25 1.096    C    5 0.996    C   41 0.996    O   33 0.150
    10  N   3.414    C   26 1.096    C    6 0.996    C   42 0.996    O   34 0.150
    11  N   3.414    C   27 1.096    C    7 0.996    C   43 0.996    O   35 0.150
    12  N   3.414    C   28 1.096    C    8 0.996    C   44 0.996    O   36 0.150
    13  N   3.414    C   29 1.096    C    5 0.996    C   45 0.996    O   37 0.150
    14  N   3.414    C   30 1.096    C    6 0.996    C   46 0.996    O   38 0.150
    15  N   3.414    C   31 1.096    C    7 0.996    C   47 0.996    O   39 0.150
    16  N   3.414    C   32 1.096    C    8 0.996    C   48 0.996    O   40 0.150
    17  N   3.414    C   25 1.096    C    1 0.996    C   42 0.996    O   33 0.150
    18  N   3.414    C   26 1.096    C    2 0.996    C   43 0.996    O   34 0.150
    19  N   3.414    C   27 1.096    C    3 0.996    C   48 0.996    O   35 0.150
    20  N   3.414    C   28 1.096    C    4 0.996    C   45 0.996    O   36 0.150
    21  N   3.414    C   29 1.096    C    1 0.996    C   46 0.996    O   37 0.150
    22  N   3.414    C   30 1.096    C    2 0.996    C   47 0.996    O   38 0.150
    23  N   3.414    C   31 1.096    C    3 0.996    C   44 0.996    O   39 0.150
    24  N   3.414    C   32 1.096    C    4 0.996    C   41 0.996    O   40 0.150
    25  C   3.964    O   33 1.708    N    9 1.096    N   17 1.096
    26  C   3.964    O   34 1.708    N   10 1.096    N   18 1.096
    27  C   3.964    O   35 1.708    N   11 1.096    N   19 1.096
    28  C   3.964    O   36 1.708    N   12 1.096    N   20 1.096
    29  C   3.964    O   37 1.708    N   13 1.096    N   21 1.096
    30  C   3.964    O   38 1.708    N   14 1.096    N   22 1.096
    31  C   3.964    O   39 1.708    N   15 1.096    N   23 1.096
    32  C   3.964    O   40 1.708    N   16 1.096    N   24 1.096
    33  O   2.066    C   25 1.708    N    9 0.150    N   17 0.150
    34  O   2.066    C   26 1.708    N   10 0.150    N   18 0.150
    35  O   2.066    C   27 1.708    N   11 0.150    N   19 0.150
    36  O   2.066    C   28 1.708    N   12 0.150    N   20 0.150
    37  O   2.066    C   29 1.708    N   13 0.150    N   21 0.150
    38  O   2.066    C   30 1.708    N   14 0.150    N   22 0.150
    39  O   2.066    C   31 1.708    N   15 0.150    N   23 0.150
    40  O   2.066    C   32 1.708    N   16 0.150    N   24 0.150
    41  C   3.968    N   24 0.996    N    9 0.996    H   49 0.965    H   57 0.959
    42  C   3.968    N   17 0.996    N   10 0.996    H   50 0.965    H   58 0.959
    43  C   3.968    N   18 0.996    N   11 0.996    H   51 0.965    H   59 0.959
    44  C   3.968    N   23 0.996    N   12 0.996    H   52 0.965    H   60 0.959
    45  C   3.968    N   20 0.996    N   13 0.996    H   53 0.965    H   61 0.959
    46  C   3.968    N   21 0.996    N   14 0.996    H   54 0.965    H   62 0.959
    47  C   3.968    N   22 0.996    N   15 0.996    H   55 0.965    H   63 0.959
    48  C   3.968    N   19 0.996    N   16 0.996    H   56 0.965    H   64 0.959
    49  H   0.998    C   41 0.965
    50  H   0.998    C   42 0.965
    51  H   0.998    C   43 0.965
    52  H   0.998    C   44 0.965
    53  H   0.998    C   45 0.965
    54  H   0.998    C   46 0.965
    55  H   0.998    C   47 0.965
    56  H   0.998    C   48 0.965
    57  H   0.994    C   41 0.959
    58  H   0.994    C   42 0.959
    59  H   0.994    C   43 0.959
    60  H   0.994    C   44 0.959
    61  H   0.994    C   45 0.959
    62  H   0.994    C   46 0.959
    63  H   0.994    C   47 0.959
    64  H   0.994    C   48 0.959
    65  H   0.999    C    5 0.950
    66  H   0.999    C    6 0.950
    67  H   0.999    C    7 0.950
    68  H   0.999    C    8 0.950
    69  H   0.999    C    1 0.950
    70  H   0.999    C    2 0.950
    71  H   0.999    C    3 0.950
    72  H   0.999    C    4 0.950
    73  HE -0.002
 density
 
 cube file module (SG, 7/16)
 cube_pthr     :   0.005
 cube_step     :   0.400
 non-zero P (%):  31.102   nmat:    7561
 Grid Boundaries (x y z) :
   11.8420088195022        11.8420088195022        8.99145171128480     
  -11.8420088195022       -11.8420088195022       -8.99145171128480     
 Total # of points                162000
 writing density.cub
 N    (numint) : ******
cpu  time for cube   41.66 s
wall time for cube   40.44 s
 
molecular dipole:
                 x           y           z       tot (Debye)
 q only:        0.000       0.000      -0.000
   full:        0.000       0.000      -0.000       0.000
molecular quadrupole (traceless):
                xx          xy          yy          xz          yz          zz
 q only:       51.701      -0.000      51.701      -0.000       0.000    -103.403
  q+dip:       62.663      -0.000      62.663      -0.000       0.000    -125.326
   full:       63.646      -0.000      63.646      -0.000       0.000    -127.293
 SCC converged in                     14  cycles
 
SCC energy    :    -149.9397970
rep           :       1.4135572
ES            :       0.0011884
AES           :       0.0169674
disp          :      -0.1041025
XB            :       0.0000000
fix           :       0.0000000
total E       :    -148.6303422
atomizationE  :      19.6692597    12342.65
(atE without considerung molecular charge,
 total energy contains solvation terms)
H-L gap (eV)  :          5.0943
 
             =======================================
             |                                     |
             |    Approximate Normal Coordinate    |
             |   Rational Function Optimization    |
             |                                     |
             =======================================
Ref. for RF algo: F.Eckert, P.Pulay, H.-J.Werner
                  J.Comput.Chem. 18 (1997) 1473.
ANC idea implemented by S. Grimme in the 2000ers (unpublished)
restraining potential by S. Ehrlich.
dumping coords to <xtbopt.coord> and <xtbopt.log
 optlevel                         1
 Maxcycle                       365
 Maxmicro                        20
 Econv         1.000000000000000E-006
 Gconv         8.000000000000000E-004
 Maxdispl       1.00000000000000     
 Hlow          4.000000000000000E-003
 S6             20.0000000000000     
 Nvar                        213

generating ANC from model Hessian ...
 Shifting diagonal of input Hessian by   3.527420175270678E-003
 Lowest  eigenvalues of input Hessian
   -0.000000   -0.000000   -0.000000   -0.000000    0.000000    0.000000
    0.004000    0.004817    0.004817    0.006541    0.006666    0.007828
    0.008108    0.012650    0.012650    0.014313    0.016477    0.016761
 Highest eigenvalues
    2.454465    2.455604    2.458580    2.460112    2.460112    2.464557
 
cpu  time for ANC gen    0.25 s
wall time for ANC gen    0.16 s
................................................................................
.............................. CYCLE    1 ......................................
................................................................................
  q data taken from xtbrestart
  CAMM data taken from xtbrestart
   1   -149.9397970 -0.149940E+03  0.291E-05    5.09       0.0  T
   2   -149.9397970 -0.541434E-10  0.155E-05    5.09     754.6  T
   3   -149.9397970 -0.124487E-10  0.792E-06    5.09    1477.5  T
speedup  8.52
cpu  time for SCC    1.48 s
wall time for SCC    0.17 s
speedup  8.53
cpu  time for grad    1.68 s
wall time for grad    0.20 s
 E :   -148.63034224  G :  0.091619    pred/act E change:  0.000D+00 -0.115D-09
Maxdispl :   0.1830   ||displ|| :   0.3869   Lambda : -0.195D-01
Largest |displ|/coords:  0.1830 (  49)  0.1741 (  11)  0.1723 (  73)
................................................................................
.............................. CYCLE    2 ......................................
................................................................................
   1   -150.0105226 -0.150011E+03  0.169E-01    5.24       0.0  T
   2   -150.0106585 -0.135881E-03  0.968E-02    5.22       1.0  T
   3   -150.0106032  0.553263E-04  0.431E-02    5.24       1.0  T
   4   -150.0107023 -0.990584E-04  0.755E-03    5.23       1.6  T
   5   -150.0107032 -0.927574E-06  0.373E-03    5.23       3.1  T
   6   -150.0107034 -0.167362E-06  0.158E-03    5.23       7.4  T
   7   -150.0107034 -0.410109E-07  0.573E-04    5.23      20.4  T
   8   -150.0107034 -0.624678E-08  0.172E-04    5.23      67.9  T
speedup  9.98
cpu  time for SCC    2.81 s
wall time for SCC    0.28 s
speedup  8.61
cpu  time for grad    1.45 s
wall time for grad    0.17 s
 E :   -148.64377215  G :  0.030850    pred/act E change:  0.000D+00 -0.134D-01
Maxdispl :   0.1635   ||displ|| :   0.3325   Lambda : -0.621D-02
Largest |displ|/coords:  0.1635 (  11)  0.1539 (  49)  0.1402 (  45)
................................................................................
.............................. CYCLE    3 ......................................
................................................................................
   1   -150.0466111 -0.150047E+03  0.163E-01    5.27       0.0  T
   2   -150.0467202 -0.109126E-03  0.897E-02    5.26       1.0  T
   3   -150.0467225 -0.227371E-05  0.198E-02    5.27       1.0  T
   4   -150.0467369 -0.144136E-04  0.716E-03    5.27       1.6  T
   5   -150.0467380 -0.106646E-05  0.274E-03    5.27       4.3  T
   6   -150.0467381 -0.166950E-06  0.152E-03    5.27       7.7  T
   7   -150.0467382 -0.328511E-07  0.403E-04    5.27      29.1  T
   8   -150.0467382 -0.560618E-08  0.162E-04    5.27      72.4  T
speedup  7.87
cpu  time for SCC    3.31 s
wall time for SCC    0.42 s
speedup  8.53
cpu  time for grad    1.40 s
wall time for grad    0.16 s
 E :   -148.64742463  G :  0.013627    pred/act E change: -0.112D-01 -0.365D-02
Maxdispl :   0.0716   ||displ|| :   0.1190   Lambda : -0.490D-03
Largest |displ|/coords:  0.0716 (  11)  0.0580 (  29)  0.0488 (  45)
................................................................................
.............................. CYCLE    4 ......................................
................................................................................
   1   -150.0491499 -0.150049E+03  0.451E-02    5.26       0.0  T
   2   -150.0491645 -0.146060E-04  0.241E-02    5.26       1.0  T
   3   -150.0491651 -0.612829E-06  0.627E-03    5.26       1.9  T
   4   -150.0491662 -0.113786E-05  0.246E-03    5.26       4.7  T
   5   -150.0491664 -0.195230E-06  0.796E-04    5.26      14.7  T
   6   -150.0491665 -0.239251E-07  0.396E-04    5.26      29.5  T
   7   -150.0491665 -0.135108E-08  0.129E-04    5.26      90.4  T
speedup  7.69
cpu  time for SCC    1.97 s
wall time for SCC    0.26 s
speedup  8.17
cpu  time for grad    1.33 s
wall time for grad    0.16 s
 E :   -148.64770402  G :  0.003430    pred/act E change: -0.345D-02 -0.279D-03
Maxdispl :   0.0253   ||displ|| :   0.0373   Lambda : -0.380D-04
Largest |displ|/coords:  0.0253 (  11)  0.0235 (  20)  0.0117 (  45)
................................................................................
.............................. CYCLE    5 ......................................
................................................................................
   1   -150.0486764 -0.150049E+03  0.902E-03    5.25       0.0  T
   2   -150.0486772 -0.868249E-06  0.470E-03    5.25       2.5  T
   3   -150.0486773 -0.491354E-07  0.183E-03    5.25       6.4  T
   4   -150.0486773 -0.502067E-07  0.444E-04    5.25      26.3  T
   5   -150.0486773 -0.356965E-08  0.147E-04    5.25      79.9  T
   6   -150.0486773 -0.914838E-09  0.499E-05    5.25     234.6  T
speedup  8.69
cpu  time for SCC    2.11 s
wall time for SCC    0.24 s
speedup  8.29
cpu  time for grad    1.54 s
wall time for grad    0.19 s
 E :   -148.64772861  G :  0.001223    pred/act E change: -0.248D-03 -0.246D-04
Maxdispl :   0.0182   ||displ|| :   0.0270   Lambda : -0.102D-04
Largest |displ|/coords:  0.0182 (  20)  0.0181 (  11)  0.0065 (  29)
................................................................................
.............................. CYCLE    6 ......................................
................................................................................
   1   -150.0483826 -0.150048E+03  0.526E-03    5.25       0.0  T
   2   -150.0483828 -0.190127E-06  0.307E-03    5.25       3.8  T
   3   -150.0483828  0.157403E-07  0.126E-03    5.25       9.3  T
   4   -150.0483828 -0.427707E-07  0.196E-04    5.25      59.7  T
   5   -150.0483828 -0.220507E-08  0.848E-05    5.25     138.0  T
speedup 10.64
cpu  time for SCC    2.73 s
wall time for SCC    0.26 s
speedup  7.90
cpu  time for grad    1.52 s
wall time for grad    0.19 s
 E :   -148.64773503  G :  0.000700    pred/act E change: -0.190D-04 -0.642D-05
Maxdispl :   0.0094   ||displ|| :   0.0139   Lambda : -0.230D-05
Largest |displ|/coords:  0.0094 (  20)  0.0085 (  11)  0.0055 (  29)
................................................................................
.............................. CYCLE    7 ......................................
................................................................................
   1   -150.0484509 -0.150048E+03  0.306E-03    5.25       0.0  T
   2   -150.0484509 -0.143834E-07  0.182E-03    5.25       6.4  T
   3   -150.0484509  0.338724E-08  0.330E-04    5.25      35.5  T
   4   -150.0484509 -0.602384E-08  0.796E-05    5.25     147.0  T
   5   -150.0484509 -0.135884E-09  0.456E-05    5.25     256.5  T
speedup  8.75
cpu  time for SCC    1.93 s
wall time for SCC    0.22 s
speedup  8.92
cpu  time for grad    1.61 s
wall time for grad    0.18 s
 E :   -148.64773651  G :  0.000402    pred/act E change: -0.511D-05 -0.149D-05
Maxdispl :   0.0043   ||displ|| :   0.0062   Lambda : -0.595D-06
Largest |displ|/coords:  0.0043 (  20)  0.0030 (  11)  0.0027 (  29)
................................................................................
.............................. CYCLE    8 ......................................
................................................................................
   1   -150.0485487 -0.150049E+03  0.149E-03    5.25       0.0  T
   2   -150.0485487 -0.115072E-07  0.853E-04    5.25      13.7  T
   3   -150.0485487  0.269949E-08  0.285E-04    5.25      41.1  T
   4   -150.0485487 -0.444709E-08  0.712E-05    5.25     164.4  T
   5   -150.0485487 -0.175049E-09  0.261E-05    5.25     448.5  T
speedup  8.79
cpu  time for SCC    1.91 s
wall time for SCC    0.22 s
speedup  8.48
cpu  time for grad    1.58 s
wall time for grad    0.19 s
 E :   -148.64773688  G :  0.000206    pred/act E change: -0.115D-05 -0.362D-06
Maxdispl :   0.0011   ||displ|| :   0.0014   Lambda : -0.831D-07
Largest |displ|/coords:  0.0011 (  20)  0.0005 (  49)  0.0004 (  45)
ancopt converged in          8 cycles
total energy gain (kcal):    -10.9153
================
 final structure:
================
    73
       -148.64773688
C          -3.16533463130439   -1.60773269021800    0.00000000139220
C           1.60773268923292   -3.16533463213361    0.00000000141018
C           3.16533463209919    1.60773269034139   -0.00000000002819
C          -1.60773268940810    3.16533462911279   -0.00000000153387
C          -3.54867516534979   -0.10458099475800   -0.00000000149414
C           0.10458099445799   -3.54867516268442    0.00000000209325
C           3.54867516397819    0.10458099343125    0.00000000270817
C          -0.10458099452575    3.54867516383228   -0.00000000203815
N          -2.96579891301590    0.38490678075763   -1.21795977672920
N          -0.38490677828309   -2.96579890700277   -1.21795977803775
N           2.96579890033161   -0.38490677950335   -1.21795977258826
N           0.38490678231879    2.96579891074074    1.21795977610761
N          -2.96579890226093    0.38490678246891    1.21795976833485
N          -0.38490677871304   -2.96579889870180    1.21795977428305
N           2.96579891136210   -0.38490677691963    1.21795977425898
N           0.38490678341972    2.96579890234132   -1.21795977332602
N          -2.41924014508405   -1.75829586486929   -1.21796745433370
N           1.75829587142453   -2.41924015110263   -1.21796746305430
N           2.41924015300974    1.75829587026312   -1.21796746380961
N          -1.75829586646916    2.41924015185144    1.21796746094979
N          -2.41924015311457   -1.75829586818983    1.21796746010649
N           1.75829586818632   -2.41924014233228    1.21796745860412
N           2.41924014526598    1.75829586820009    1.21796745172519
N          -1.75829586317411    2.41924014257634   -1.21796745764979
C          -2.43358290213501   -0.62065746560648   -1.99518050684315
C           0.62065746123251   -2.43358291940280   -1.99518050116347
C           2.43358290701192    0.62065745872971   -1.99518049689713
C          -0.62065746794948    2.43358291344657    1.99518050628519
C          -2.43358290171393   -0.62065746101550    1.99518050785501
C           0.62065745877633   -2.43358290643056    1.99518049039897
C           2.43358290151268    0.62065745938670    1.99518051205622
C          -0.62065746613158    2.43358290469245   -1.99518049651451
O          -2.09416962012633   -0.53409637559046   -3.13865730033133
O           0.53409637733800   -2.09416964521022   -3.13865730478385
O           2.09416961893816    0.53409636274657   -3.13865729645545
O          -0.53409637170719    2.09416964139302    3.13865730595169
O          -2.09416962274791   -0.53409636054786    3.13865729942589
O           0.53409637212538   -2.09416961915947    3.13865729463761
O           2.09416962081918    0.53409637921834    3.13865730390362
O          -0.53409636912537    2.09416962600087   -3.13865729879503
C          -2.94946856890324    1.75074130924770   -1.65979483188437
C          -1.75074131146913   -2.94946856589507   -1.65979483261195
C           2.94946856291262   -1.75074131469824   -1.65979483338899
C           1.75074131013780    2.94946856434614    1.65979483246750
C          -2.94946856582322    1.75074130963720    1.65979483237146
C          -1.75074131532185   -2.94946856589618    1.65979483184731
C           2.94946856670674   -1.75074131367287    1.65979483166963
C           1.75074131272408    2.94946856620367   -1.65979483245471
H          -3.84477215965339    2.28216215112456   -1.31663265807249
H          -2.28216214876289   -3.84477216112679   -1.31663266676424
H           3.84477216365831   -2.28216214522062   -1.31663266972648
H           2.28216214989581    3.84477216204800    1.31663267167417
H          -3.84477216212318    2.28216214771007    1.31663266781139
H          -2.28216214484130   -3.84477216286765    1.31663265655449
H           3.84477216115691   -2.28216214981051    1.31663265928366
H           2.28216214679866    3.84477216270736   -1.31663266026406
H          -2.89457203789568    1.71815577094629   -2.75690347001715
H          -1.71815576396481   -2.89457202840627   -2.75690347094455
H           2.89457202899678   -1.71815575899591   -2.75690347228469
H           1.71815576303089    2.89457202594213    2.75690347055908
H          -2.89457203028325    1.71815576024695    2.75690347028146
H          -1.71815576644676   -2.89457204148398    2.75690346992672
H           2.89457203761072   -1.71815577004734    2.75690346987487
H           1.71815576558611    2.89457203932158   -2.75690347101902
H          -4.64257642639195    0.06912845790033   -0.00000000009168
H          -0.06912846270168   -4.64257642189394    0.00000000233016
H           4.64257642512184   -0.06912845978368   -0.00000000083956
H           0.06912845944307    4.64257642504857   -0.00000000209587
H          -4.04244893415890   -2.28409550096303   -0.00000000002320
H           2.28409550171092   -4.04244893270407    0.00000000224950
H           4.04244893561093    2.28409550080230   -0.00000000045088
H          -2.28409550179484    4.04244893054476   -0.00000000242569
HE         -0.00000000106771   -0.00000000046400    0.00000000037700
 
 Bond Distances (Angstroems)
 ---------------------------
C1-C5=1.5513         C1-N17=1.4362        C1-N21=1.4362        C1-H69=1.1076        C2-C6=1.5513         C2-N18=1.4362        
C2-N22=1.4362        C2-H70=1.1076        C3-C7=1.5513         C3-N19=1.4362        C3-N23=1.4362        C3-H71=1.1076        
C4-C8=1.5513         C4-N20=1.4362        C4-N24=1.4362        C4-H72=1.1076        C5-C1=1.5513         C5-N9=1.4362         
C5-N13=1.4362        C5-H65=1.1076        C6-C2=1.5513         C6-N10=1.4362        C6-N14=1.4362        C6-H66=1.1076        
C7-C3=1.5513         C7-N11=1.4362        C7-N15=1.4362        C7-H67=1.1076        C8-C4=1.5513         C8-N12=1.4362        
C8-N16=1.4362        C8-H68=1.1076        N9-C5=1.4362         N9-C25=1.3779        N9-C41=1.4356        N10-C6=1.4362        
N10-C26=1.3779       N10-C42=1.4356       N11-C7=1.4362        N11-C27=1.3779       N11-C43=1.4356       N12-C8=1.4362        
N12-C28=1.3779       N12-C44=1.4356       N13-C5=1.4362        N13-C29=1.3779       N13-C45=1.4356       N14-C6=1.4362        
N14-C30=1.3779       N14-C46=1.4356       N15-C7=1.4362        N15-C31=1.3779       N15-C47=1.4356       N16-C8=1.4362        
N16-C32=1.3779       N16-C48=1.4356       N17-C1=1.4362        N17-C25=1.3779       N17-C42=1.4356       N18-C2=1.4362        
N18-C26=1.3779       N18-C43=1.4356       N19-C3=1.4362        N19-C27=1.3779       N19-C48=1.4356       N20-C4=1.4362        
N20-C28=1.3779       N20-C45=1.4356       N21-C1=1.4362        N21-C29=1.3779       N21-C46=1.4356       N22-C2=1.4362        
N22-C30=1.3779       N22-C47=1.4356       N23-C3=1.4362        N23-C31=1.3779       N23-C44=1.4356       N24-C4=1.4362        
N24-C32=1.3779       N24-C41=1.4356       C25-N9=1.3779        C25-N17=1.3779       C25-O33=1.1959       C26-N10=1.3779       
C26-N18=1.3779       C26-O34=1.1959       C27-N11=1.3779       C27-N19=1.3779       C27-O35=1.1959       C28-N12=1.3779       
C28-N20=1.3779       C28-O36=1.1959       C29-N13=1.3779       C29-N21=1.3779       C29-O37=1.1959       C30-N14=1.3779       
C30-N22=1.3779       C30-O38=1.1959       C31-N15=1.3779       C31-N23=1.3779       C31-O39=1.1959       C32-N16=1.3779       
C32-N24=1.3779       C32-O40=1.1959       O33-C25=1.1959       O34-C26=1.1959       O35-C27=1.1959       O36-C28=1.1959       
O37-C29=1.1959       O38-C30=1.1959       O39-C31=1.1959       O40-C32=1.1959       C41-N9=1.4356        C41-N24=1.4356       
C41-H49=1.0962       C41-H57=1.0990       C42-N10=1.4356       C42-N17=1.4356       C42-H50=1.0962       C42-H58=1.0990       
C43-N11=1.4356       C43-N18=1.4356       C43-H51=1.0962       C43-H59=1.0990       C44-N12=1.4356       C44-N23=1.4356       
C44-H52=1.0962       C44-H60=1.0990       C45-N13=1.4356       C45-N20=1.4356       C45-H53=1.0962       C45-H61=1.0990       
C46-N14=1.4356       C46-N21=1.4356       C46-H54=1.0962       C46-H62=1.0990       C47-N15=1.4356       C47-N22=1.4356       
C47-H55=1.0962       C47-H63=1.0990       C48-N16=1.4356       C48-N19=1.4356       C48-H56=1.0962       C48-H64=1.0990       
H49-C41=1.0962       H50-C42=1.0962       H51-C43=1.0962       H52-C44=1.0962       H53-C45=1.0962       H54-C46=1.0962       
H55-C47=1.0962       H56-C48=1.0962       H57-C41=1.0990       H58-C42=1.0990       H59-C43=1.0990       H60-C44=1.0990       
H61-C45=1.0990       H62-C46=1.0990       H63-C47=1.0990       H64-C48=1.0990       H65-C5=1.1076        H66-C6=1.1076        
H67-C7=1.1076        H68-C8=1.1076        H69-C1=1.1076        H70-C2=1.1076        H71-C3=1.1076        H72-C4=1.1076        
 C  H  Rav=1.1009 sigma=0.0048  Rmin=1.0962  Rmax=1.1076    24
 C  C  Rav=1.5513 sigma=0.0000  Rmin=1.5513  Rmax=1.5513     4
 N  C  Rav=1.4166 sigma=0.0274  Rmin=1.3779  Rmax=1.4362    48
 O  C  Rav=1.1959 sigma=0.0000  Rmin=1.1959  Rmax=1.1959     8
 
 selected bond angles (degree)
 --------------------
N17-C1-C5=103.29               N21-C1-C5=103.29               N21-C1-N17=116.00              H69-C1-C5=113.33               
H69-C1-N17=110.33              H69-C1-N21=110.33              N18-C2-C6=103.29               N22-C2-C6=103.29               
N22-C2-N18=116.00              H70-C2-C6=113.33               H70-C2-N18=110.33              H70-C2-N22=110.33              
N19-C3-C7=103.29               N23-C3-C7=103.29               N23-C3-N19=116.00              H71-C3-C7=113.33               
H71-C3-N19=110.33              H71-C3-N23=110.33              N20-C4-C8=103.29               N24-C4-C8=103.29               
N24-C4-N20=116.00              H72-C4-C8=113.33               H72-C4-N20=110.33              H72-C4-N24=110.33              
N9-C5-C1=103.29                N13-C5-C1=103.29               N13-C5-N9=115.99               H65-C5-C1=113.33               
H65-C5-N9=110.33               H65-C5-N13=110.33              N10-C6-C2=103.29               N14-C6-C2=103.29               
N14-C6-N10=115.99              H66-C6-C2=113.33               H66-C6-N10=110.33              H66-C6-N14=110.33              
N11-C7-C3=103.29               N15-C7-C3=103.29               N15-C7-N11=115.99              H67-C7-C3=113.33               
H67-C7-N11=110.33              H67-C7-N15=110.33              N12-C8-C4=103.29               N16-C8-C4=103.29               
N16-C8-N12=115.99              H68-C8-C4=113.33               H68-C8-N12=110.33              H68-C8-N16=110.33              
C25-N9-C5=112.73               C41-N9-C5=126.15               C41-N9-C25=121.09              C26-N10-C6=112.73              
C42-N10-C6=126.15              C42-N10-C26=121.09             
 
 selected dihedral angles (degree)
 ---------------------------------
N9-C5-C1-N17=  0.00           N9-C5-C1-N21=121.24           N9-C5-C1-H69=240.62           N13-C5-C1-N17=238.76          
N13-C5-C1-N21=  0.00          N13-C5-C1-H69=119.38          H65-C5-C1-N17=119.38          H65-C5-C1-N21=240.62          
H65-C5-C1-H69=  0.00          N10-C6-C2-N18=  0.00          N10-C6-C2-N22=121.24          N10-C6-C2-H70=240.62          
N14-C6-C2-N18=238.76          N14-C6-C2-N22=  0.00          N14-C6-C2-H70=119.38          H66-C6-C2-N18=119.38          
H66-C6-C2-N22=240.62          H66-C6-C2-H70=  0.00          N11-C7-C3-N19=  0.00          N11-C7-C3-N23=121.24          
N11-C7-C3-H71=240.62          N15-C7-C3-N19=238.76          N15-C7-C3-N23=  0.00          N15-C7-C3-H71=119.38          
H67-C7-C3-N19=119.38          H67-C7-C3-N23=240.62          H67-C7-C3-H71=  0.00          N12-C8-C4-N20=  0.00          
N12-C8-C4-N24=238.76          N12-C8-C4-H72=119.38          N16-C8-C4-N20=121.24          N16-C8-C4-N24=  0.00          
N16-C8-C4-H72=240.62          H68-C8-C4-N20=240.62          H68-C8-C4-N24=119.38          H68-C8-C4-H72=  0.00          
C25-N9-C5-C1=  6.71           C25-N9-C5-N13=118.93          C25-N9-C5-H65=245.28          C41-N9-C5-C1=184.51           
C41-N9-C5-N13=296.72          C41-N9-C5-H65= 63.08          C26-N10-C6-C2=  6.71          C26-N10-C6-N14=118.93         
C26-N10-C6-H66=245.28         C42-N10-C6-C2=184.51          C42-N10-C6-N14=296.72         C42-N10-C6-H66= 63.08         
 
 CMA Distance (Angstroems)
 ---------------------------
R(CMA):  0.0000
 
             =======================================
             |                                     |
             |        S C C  calculation           |
             |                                     |
             =======================================
 #proc     :                      1
 Ncao      :                    220
 Nao       :                    220
 Nel       :                    250
 T(el)     :   300.0
 intcut    :    25.0
 scfconv   :  0.100E-05
   qconv   :  0.200E-04
 intneglect:  0.100E-07
 broydamp  :      0.400
 Nshell    :                    122
 iter      E             dE          RMSdq      gap      omega  full diag
   1   -150.0485487 -0.150049E+03  0.979E-06    5.25       0.0  T
   2   -150.0485487 -0.389377E-11  0.534E-06    5.25    2190.4  T
   3   -150.0485487 -0.909495E-12  0.291E-06    5.25    4020.3  T
speedup  8.83
cpu  time for SCC    1.48 s
wall time for SCC    0.17 s

          eigenvalues
 #    :         113        114        115        116        117        118        119        120
 occ. :        2.000      2.000      2.000      2.000      2.000      2.000      2.000      2.000
 eps  :       -10.353    -10.353    -10.348    -10.292    -10.255    -10.185    -10.115    -10.089
 #    :         121        122        123        124        125        126        127        128
 occ. :        2.000      2.000      2.000      2.000      2.000      0.000      0.000      0.000
 eps  :       -10.089    -10.074    -10.074    -10.010     -9.903     -4.650     -4.603     -4.429
 #    :         129        130        131        132        133        134        135        136
 occ. :        0.000      0.000      0.000      0.000      0.000      0.000      0.000      0.000
 eps  :        -4.429     -4.396     -4.396     -4.325     -4.164      0.002      0.242      0.242
 
 
 Mulliken/CM5 charges        n(s)   n(p)   n(d)
     1 C   0.06806  0.14961   1.077  2.855  0.000
     2 C   0.06806  0.14961   1.077  2.855  0.000
     3 C   0.06806  0.14961   1.077  2.855  0.000
     4 C   0.06806  0.14961   1.077  2.855  0.000
     5 C   0.06806  0.14962   1.077  2.855  0.000
     6 C   0.06806  0.14962   1.077  2.855  0.000
     7 C   0.06806  0.14962   1.077  2.855  0.000
     8 C   0.06806  0.14962   1.077  2.855  0.000
     9 N  -0.03407 -0.27427   1.124  3.910  0.000
    10 N  -0.03407 -0.27427   1.124  3.910  0.000
    11 N  -0.03407 -0.27427   1.124  3.910  0.000
    12 N  -0.03407 -0.27427   1.124  3.910  0.000
    13 N  -0.03407 -0.27427   1.124  3.910  0.000
    14 N  -0.03407 -0.27427   1.124  3.910  0.000
    15 N  -0.03407 -0.27427   1.124  3.910  0.000
    16 N  -0.03407 -0.27427   1.124  3.910  0.000
    17 N  -0.03407 -0.27427   1.124  3.910  0.000
    18 N  -0.03407 -0.27427   1.124  3.910  0.000
    19 N  -0.03407 -0.27427   1.124  3.910  0.000
    20 N  -0.03407 -0.27427   1.124  3.910  0.000
    21 N  -0.03407 -0.27427   1.124  3.910  0.000
    22 N  -0.03407 -0.27427   1.124  3.910  0.000
    23 N  -0.03407 -0.27427   1.124  3.910  0.000
    24 N  -0.03407 -0.27427   1.124  3.910  0.000
    25 C   0.23363  0.40701   1.052  2.715  0.000
    26 C   0.23363  0.40701   1.052  2.715  0.000
    27 C   0.23363  0.40701   1.052  2.715  0.000
    28 C   0.23363  0.40701   1.052  2.715  0.000
    29 C   0.23363  0.40701   1.052  2.715  0.000
    30 C   0.23363  0.40701   1.052  2.715  0.000
    31 C   0.23363  0.40701   1.052  2.715  0.000
    32 C   0.23363  0.40701   1.052  2.715  0.000
    33 O  -0.39969 -0.44177   1.725  4.674  0.000
    34 O  -0.39969 -0.44177   1.725  4.674  0.000
    35 O  -0.39969 -0.44177   1.725  4.674  0.000
    36 O  -0.39969 -0.44177   1.725  4.674  0.000
    37 O  -0.39969 -0.44177   1.725  4.674  0.000
    38 O  -0.39969 -0.44177   1.725  4.674  0.000
    39 O  -0.39969 -0.44177   1.725  4.674  0.000
    40 O  -0.39969 -0.44177   1.725  4.674  0.000
    41 C   0.03207  0.05862   1.071  2.896  0.000
    42 C   0.03207  0.05862   1.071  2.896  0.000
    43 C   0.03207  0.05862   1.071  2.896  0.000
    44 C   0.03207  0.05862   1.071  2.896  0.000
    45 C   0.03207  0.05862   1.071  2.896  0.000
    46 C   0.03207  0.05862   1.071  2.896  0.000
    47 C   0.03207  0.05862   1.071  2.896  0.000
    48 C   0.03207  0.05862   1.071  2.896  0.000
    49 H   0.03510  0.11145   0.965  0.000  0.000
    50 H   0.03510  0.11145   0.965  0.000  0.000
    51 H   0.03510  0.11145   0.965  0.000  0.000
    52 H   0.03510  0.11145   0.965  0.000  0.000
    53 H   0.03510  0.11145   0.965  0.000  0.000
    54 H   0.03510  0.11145   0.965  0.000  0.000
    55 H   0.03510  0.11145   0.965  0.000  0.000
    56 H   0.03510  0.11145   0.965  0.000  0.000
    57 H   0.07357  0.16203   0.926  0.000  0.000
    58 H   0.07357  0.16203   0.926  0.000  0.000
    59 H   0.07357  0.16203   0.926  0.000  0.000
    60 H   0.07357  0.16203   0.926  0.000  0.000
    61 H   0.07357  0.16203   0.926  0.000  0.000
    62 H   0.07357  0.16203   0.926  0.000  0.000
    63 H   0.07357  0.16203   0.926  0.000  0.000
    64 H   0.07357  0.16203   0.926  0.000  0.000
    65 H   0.02519  0.10298   0.975  0.000  0.000
    66 H   0.02519  0.10298   0.975  0.000  0.000
    67 H   0.02519  0.10298   0.975  0.000  0.000
    68 H   0.02519  0.10298   0.975  0.000  0.000
    69 H   0.02519  0.10298   0.975  0.000  0.000
    70 H   0.02519  0.10298   0.975  0.000  0.000
    71 H   0.02519  0.10298   0.975  0.000  0.000
    72 H   0.02519  0.10298   0.975  0.000  0.000
    73 HE  0.00154 -0.01133   2.000 -0.001  0.000
 
 Wiberg/Mayer (AO) data. WBOs > 0.1 written file <wbo>
 largest (>0.05) Wiberg bond orders for each atom
           total WBO             WBO to atom ...
     1  C   3.978    N   21 0.995    N   17 0.995    C    5 0.957    H   69 0.948
     2  C   3.978    N   22 0.995    N   18 0.995    C    6 0.957    H   70 0.948
     3  C   3.978    N   23 0.995    N   19 0.995    C    7 0.957    H   71 0.948
     4  C   3.978    N   20 0.995    N   24 0.995    C    8 0.957    H   72 0.948
     5  C   3.978    N    9 0.995    N   13 0.995    C    1 0.957    H   65 0.948
     6  C   3.978    N   14 0.995    N   10 0.995    C    2 0.957    H   66 0.948
     7  C   3.978    N   15 0.995    N   11 0.995    C    3 0.957    H   67 0.948
     8  C   3.978    N   16 0.995    N   12 0.995    C    4 0.957    H   68 0.948
     9  N   3.418    C   25 1.101    C   41 0.997    C    5 0.995    O   33 0.150
    10  N   3.418    C   26 1.101    C   42 0.997    C    6 0.995    O   34 0.150
    11  N   3.418    C   27 1.101    C   43 0.997    C    7 0.995    O   35 0.150
    12  N   3.418    C   28 1.101    C   44 0.997    C    8 0.995    O   36 0.150
    13  N   3.418    C   29 1.101    C   45 0.997    C    5 0.995    O   37 0.150
    14  N   3.418    C   30 1.101    C   46 0.997    C    6 0.995    O   38 0.150
    15  N   3.418    C   31 1.101    C   47 0.997    C    7 0.995    O   39 0.150
    16  N   3.418    C   32 1.101    C   48 0.997    C    8 0.995    O   40 0.150
    17  N   3.418    C   25 1.101    C   42 0.997    C    1 0.995    O   33 0.150
    18  N   3.418    C   26 1.101    C   43 0.997    C    2 0.995    O   34 0.150
    19  N   3.418    C   27 1.101    C   48 0.997    C    3 0.995    O   35 0.150
    20  N   3.418    C   28 1.101    C   45 0.997    C    4 0.995    O   36 0.150
    21  N   3.418    C   29 1.101    C   46 0.997    C    1 0.995    O   37 0.150
    22  N   3.418    C   30 1.101    C   47 0.997    C    2 0.995    O   38 0.150
    23  N   3.418    C   31 1.101    C   44 0.997    C    3 0.995    O   39 0.150
    24  N   3.418    C   32 1.101    C   41 0.997    C    4 0.995    O   40 0.150
    25  C   3.966    O   33 1.701    N    9 1.101    N   17 1.101
    26  C   3.966    O   34 1.701    N   10 1.101    N   18 1.101
    27  C   3.966    O   35 1.701    N   11 1.101    N   19 1.101
    28  C   3.966    O   36 1.701    N   12 1.101    N   20 1.101
    29  C   3.966    O   37 1.701    N   13 1.101    N   21 1.101
    30  C   3.966    O   38 1.701    N   14 1.101    N   22 1.101
    31  C   3.966    O   39 1.701    N   15 1.101    N   23 1.101
    32  C   3.966    O   40 1.701    N   16 1.101    N   24 1.101
    33  O   2.061    C   25 1.701    N    9 0.150    N   17 0.150
    34  O   2.061    C   26 1.701    N   10 0.150    N   18 0.150
    35  O   2.061    C   27 1.701    N   11 0.150    N   19 0.150
    36  O   2.061    C   28 1.701    N   12 0.150    N   20 0.150
    37  O   2.061    C   29 1.701    N   13 0.150    N   21 0.150
    38  O   2.061    C   30 1.701    N   14 0.150    N   22 0.150
    39  O   2.061    C   31 1.701    N   15 0.150    N   23 0.150
    40  O   2.061    C   32 1.701    N   16 0.150    N   24 0.150
    41  C   3.970    N    9 0.997    N   24 0.997    H   49 0.965    H   57 0.957
    42  C   3.970    N   10 0.997    N   17 0.997    H   50 0.965    H   58 0.957
    43  C   3.970    N   11 0.997    N   18 0.997    H   51 0.965    H   59 0.957
    44  C   3.970    N   12 0.997    N   23 0.997    H   52 0.965    H   60 0.957
    45  C   3.970    N   13 0.997    N   20 0.997    H   53 0.965    H   61 0.957
    46  C   3.970    N   14 0.997    N   21 0.997    H   54 0.965    H   62 0.957
    47  C   3.970    N   15 0.997    N   22 0.997    H   55 0.965    H   63 0.957
    48  C   3.970    N   16 0.997    N   19 0.997    H   56 0.965    H   64 0.957
    49  H   0.998    C   41 0.965
    50  H   0.998    C   42 0.965
    51  H   0.998    C   43 0.965
    52  H   0.998    C   44 0.965
    53  H   0.998    C   45 0.965
    54  H   0.998    C   46 0.965
    55  H   0.998    C   47 0.965
    56  H   0.998    C   48 0.965
    57  H   0.994    C   41 0.957
    58  H   0.994    C   42 0.957
    59  H   0.994    C   43 0.957
    60  H   0.994    C   44 0.957
    61  H   0.994    C   45 0.957
    62  H   0.994    C   46 0.957
    63  H   0.994    C   47 0.957
    64  H   0.994    C   48 0.957
    65  H   0.999    C    5 0.948
    66  H   0.999    C    6 0.948
    67  H   0.999    C    7 0.948
    68  H   0.999    C    8 0.948
    69  H   0.999    C    1 0.948
    70  H   0.999    C    2 0.948
    71  H   0.999    C    3 0.948
    72  H   0.999    C    4 0.948
    73  HE -0.003
 density
 
 cube file module (SG, 7/16)
 cube_pthr     :   0.005
 cube_step     :   0.400
 non-zero P (%):  31.053   nmat:    7549
 Grid Boundaries (x y z) :
   11.7731971421482        11.7731971420098        8.93120215700819     
  -11.7731971445484       -11.7731971360484       -8.93120215480131     
 Total # of points                156645
 writing density.cub
 N    (numint) : ******
cpu  time for cube   40.65 s
wall time for cube   39.50 s
 
molecular dipole:
                 x           y           z       tot (Debye)
 q only:       -0.000      -0.000       0.000
   full:       -0.000      -0.000       0.000       0.000
molecular quadrupole (traceless):
                xx          xy          yy          xz          yz          zz
 q only:       50.789       0.000      50.789       0.000      -0.000    -101.578
  q+dip:       62.731      -0.000      62.731       0.000      -0.000    -125.462
   full:       63.637      -0.000      63.637       0.000      -0.000    -127.274
 SCC converged in                      3  cycles
 
SCC energy    :    -150.0485487
rep           :       1.5072946
ES            :      -0.0047111
AES           :       0.0141311
disp          :      -0.1064827
XB            :       0.0000000
fix           :       0.0000000
total E       :    -148.6477369
atomizationE  :      19.6866544    12353.56
(atE without considerung molecular charge,
 total energy contains solvation terms)
H-L gap (eV)  :          5.2535
 !!!!!!!!!!!!!!!!!!!!!!!!!!!!!!!!!!!
 ! Note: the input coordinates are !
 ! NOT overwritten. The optimized  !
 ! ones are on file <xtbopt.coord> !
 ! (or on <xtbopt.xyz> if it was a !
 ! xyz file)                       !
 !!!!!!!!!!!!!!!!!!!!!!!!!!!!!!!!!!!
 
speedup  1.39
cpu  time for all    1 m 58.2 s
wall time for all    1 m 25.0 s
