 
        ______________________________________
       |                                      |
       |           ==================         |
       |                 x T B                |
       |           ==================         |
       |               S. Grimme              |
       |        Universitaet Bonn, MCTC       |
       |         2015-18, Version 5.0         |
       |      Sat Jan 20 11:00:33 CET 2018    |
       |______________________________________|
 
        This code comes without any warranty
        for non-commercial, academia use only.
        Cite GFN-xTB work as:
        S. Grimme, C. Bannwarth, P. Shushkov
        JCTC, 13 (2017) 1989-2009
        for GFN2:
        C. Bannwarth, S. Ehlert, S. Grimme
        to be published.
        sTDA-xTB:
        S. Grimme  &  C. Bannwarth, JCP 145 (2016) 054103
        in the mass-spec context additionally:
        V. Asgeirsson, C.Bauer, S. Grimme, Chem. Sci. 8 (2017) 4879
 
        with help from
        P. Shushkov, G. Brandenburg, S. Dohm, J. Pisarek,
        F. März, M. Checinski, S. Ehrlich, S. Spicher, 
        P. Pracht, E. Caldeweyher, S. Ehlert, and C. Bannwarth.
 
        usage        :
        xtb <coord_file> [options]
        where <coord_file> is a valid file of TM)
        (*coord, Bohr) or xmol (*xyz, Angstroem)
        format.

        options:
        -chrg <int>   : molecular charge
        -uhf  <int>   : # of unpaired electrons(=2*S)
        -nox          : skip second, extended part in sTDA-xTB
        -pop          : do population analysis
                      : (default for -nox)
        -mowr <real>  : cut MO write above (def.3 Eh)
        -molden       : write formatted molden file
        -parx <file>  : read parameters for sTDA-xTB
                        calc (def:~/.param_stda2.xtb)
        -parv <file>  : read parameters for vTB part in
                        sTDA-xTB (def: ~/.param_stda1.xtb)
        -xtemp <real> : el. temp for xTB (def. 0 K)
        -etemp <real> : el. temp for GFN (def. 300 K)
        -fod          : do a xTB calc. of the FOD
                        and write molden.input file 
                        with appropriate occupations
                        for plotting. Def. T=12500 K
 
        -gfn          : use GFN-xTB
        -grad         : GFN-xTB gradient
        -acc <real>   : GFN-xTB accuracy (def. 1.0)
        -opt [level]  : optimize at GFN-xTB
                      : level=crude,vloose,loose,
                      :       tight,vtight
        -hess         : compute Hessian at GFN-xTB
        -ohess        : optimize and compute Hessian
        -omd          : optimize and do MD
        -siman        : conformational search
        -screen       : opt. loop over ensemble
        -gmd          : annealed MD for GMD procedure
        -modef        : vib mode following
        -gbsa [string1] [string2]
                        use GBSA implicit solvent
                        for solvent [string1] and
                        solvation state [string2]=
                        reference, bar1M (default=1M)
        additional GFN/opt/MD/siman options read from
        $XTBHOME/.xtbrc or $set in coordinate file
 
       spin and charge state information can be on:
       <.CHRG> (charge) and <.UHF> (=nalpha-nbeta)
       -uhf and -chrg override the file info.
       useful machine settings:
       setenv MKL_NUM_THREADS <NCORE_ON_YOUR_MACHINE>
       setenv OMP_STACKSIZE 500m
       limit stacksize unlimited
 
       total energies in Eh, gaps/HL energies in eV
       please read REVISION and HOWTO files carefully
 =============================
  # OMP threads =                     1
 =============================
 
 xtbhome directory:/Applications/xtb/
 
 argument                      1 :-gmd
 
 number of atoms            :    73
 number of electrons        :   250
 charge                     :  0
 spin                       : 0.0
 first test random number   :  0.8450
 
 
KAB for pair M(3d)-M(3d) :  1.1000
KAB for pair M(4d)-M(4d) :  1.2000
KAB for pair M(5d)-M(5d) :  1.2000
 -----------------------------------------
  G F N (Geometry, Frequency, Non-covalent)
        parametrization, version                     2
 /Applications/xtb/.param_gfn2.xtb
 -----------------------------------------
      method parameters     
 k(s)        :  1.8500
 k(p)        :  2.2500
 k(d)        :  2.0000
 k(f)        :  0.0000
 alphaj      :  1.0000
 kEN (H0ij)  : -2.3620
 D3 a1       :  0.6900
 D3 a2       :  4.0530
 D3 s8       :  2.0000
 D3atm       :  1.0000
 AESdamp     :  5.5000
 AESrad      :  1.9230
 expscalexp  : -0.2500
 
     -------------------------
     ! NO SOLVENT MODEL USED !
     -------------------------
 
 doing EN charges ...
 sum q :  0.1332268D-14
 point charge moment (au)
     X       Y       Z   
   0.0000   0.0000  -0.0000  total (Debye):    0.000
 
            Z      q(EN)   CN      Cart. coordinates
     1  C   4.0    0.22    4.34    -5.98161    -3.03817     0.00000
     2  C   4.0    0.22    4.34     3.03817    -5.98161     0.00000
     3  C   4.0    0.22    4.34     5.98161     3.03817    -0.00000
     4  C   4.0    0.22    4.34    -3.03817     5.98161    -0.00000
     5  C   4.0    0.22    4.34    -6.70602    -0.19763    -0.00000
     6  C   4.0    0.22    4.34     0.19763    -6.70602     0.00000
     7  C   4.0    0.22    4.34     6.70602     0.19763     0.00000
     8  C   4.0    0.22    4.34    -0.19763     6.70602    -0.00000
     9  N   5.0   -0.21    3.26    -5.60455     0.72737    -2.30161
    10  N   5.0   -0.21    3.26    -0.72737    -5.60455    -2.30161
    11  N   5.0   -0.21    3.26     5.60455    -0.72737    -2.30161
    12  N   5.0   -0.21    3.26     0.72737     5.60455     2.30161
    13  N   5.0   -0.21    3.26    -5.60455     0.72737     2.30161
    14  N   5.0   -0.21    3.26    -0.72737    -5.60455     2.30161
    15  N   5.0   -0.21    3.26     5.60455    -0.72737     2.30161
    16  N   5.0   -0.21    3.26     0.72737     5.60455    -2.30161
    17  N   5.0   -0.21    3.26    -4.57170    -3.32270    -2.30162
    18  N   5.0   -0.21    3.26     3.32270    -4.57170    -2.30162
    19  N   5.0   -0.21    3.26     4.57170     3.32270    -2.30162
    20  N   5.0   -0.21    3.26    -3.32270     4.57170     2.30162
    21  N   5.0   -0.21    3.26    -4.57170    -3.32270     2.30162
    22  N   5.0   -0.21    3.26     3.32270    -4.57170     2.30162
    23  N   5.0   -0.21    3.26     4.57170     3.32270     2.30162
    24  N   5.0   -0.21    3.26    -3.32270     4.57170    -2.30162
    25  C   4.0    0.47    3.29    -4.59880    -1.17287    -3.77034
    26  C   4.0    0.47    3.29     1.17287    -4.59880    -3.77034
    27  C   4.0    0.47    3.29     4.59880     1.17287    -3.77034
    28  C   4.0    0.47    3.29    -1.17287     4.59880     3.77034
    29  C   4.0    0.47    3.29    -4.59880    -1.17287     3.77034
    30  C   4.0    0.47    3.29     1.17287    -4.59880     3.77034
    31  C   4.0    0.47    3.29     4.59880     1.17287     3.77034
    32  C   4.0    0.47    3.29    -1.17287     4.59880    -3.77034
    33  O   6.0   -0.36    1.07    -3.95741    -1.00930    -5.93120
    34  O   6.0   -0.36    1.07     1.00930    -3.95741    -5.93120
    35  O   6.0   -0.36    1.07     3.95741     1.00930    -5.93120
    36  O   6.0   -0.36    1.07    -1.00930     3.95741     5.93120
    37  O   6.0   -0.36    1.07    -3.95741    -1.00930     5.93120
    38  O   6.0   -0.36    1.07     1.00930    -3.95741     5.93120
    39  O   6.0   -0.36    1.07     3.95741     1.00930     5.93120
    40  O   6.0   -0.36    1.07    -1.00930     3.95741    -5.93120
    41  C   4.0    0.25    4.15    -5.57369     3.30842    -3.13656
    42  C   4.0    0.25    4.15    -3.30842    -5.57369    -3.13656
    43  C   4.0    0.25    4.15     5.57369    -3.30842    -3.13656
    44  C   4.0    0.25    4.15     3.30842     5.57369     3.13656
    45  C   4.0    0.25    4.15    -5.57369     3.30842     3.13656
    46  C   4.0    0.25    4.15    -3.30842    -5.57369     3.13656
    47  C   4.0    0.25    4.15     5.57369    -3.30842     3.13656
    48  C   4.0    0.25    4.15     3.30842     5.57369    -3.13656
    49  H   1.0   -0.05    1.00    -7.26557     4.31266    -2.48807
    50  H   1.0   -0.05    1.00    -4.31266    -7.26557    -2.48807
    51  H   1.0   -0.05    1.00     7.26557    -4.31266    -2.48807
    52  H   1.0   -0.05    1.00     4.31266     7.26557     2.48807
    53  H   1.0   -0.05    1.00    -7.26557     4.31266     2.48807
    54  H   1.0   -0.05    1.00    -4.31266    -7.26557     2.48807
    55  H   1.0   -0.05    1.00     7.26557    -4.31266     2.48807
    56  H   1.0   -0.05    1.00     4.31266     7.26557    -2.48807
    57  H   1.0   -0.05    1.01    -5.46995     3.24684    -5.20979
    58  H   1.0   -0.05    1.01    -3.24684    -5.46995    -5.20979
    59  H   1.0   -0.05    1.01     5.46995    -3.24684    -5.20979
    60  H   1.0   -0.05    1.01     3.24684     5.46995     5.20979
    61  H   1.0   -0.05    1.01    -5.46995     3.24684     5.20979
    62  H   1.0   -0.05    1.01    -3.24684    -5.46995     5.20979
    63  H   1.0   -0.05    1.01     5.46995    -3.24684     5.20979
    64  H   1.0   -0.05    1.01     3.24684     5.46995    -5.20979
    65  H   1.0   -0.05    1.00    -8.77320     0.13063    -0.00000
    66  H   1.0   -0.05    1.00    -0.13063    -8.77320     0.00000
    67  H   1.0   -0.05    1.00     8.77320    -0.13063    -0.00000
    68  H   1.0   -0.05    1.00     0.13063     8.77320    -0.00000
    69  H   1.0   -0.05    1.00    -7.63912    -4.31631    -0.00000
    70  H   1.0   -0.05    1.00     4.31631    -7.63912     0.00000
    71  H   1.0   -0.05    1.00     7.63912     4.31631    -0.00000
    72  H   1.0   -0.05    1.00    -4.31631     7.63912    -0.00000
    73  HE  2.0   -0.01    0.01    -0.00000    -0.00000     0.00000
 
  Z AO/shell   Hii/eV     exponent
  1     Sat Jan 20 17:55:17 CET 2018    EN: 2.200 GAM: 0.531  GM3:-0.4370
     1s    -10.248275    1.266496
  2     Sun Jan 21 00:02:32 CET 2018    EN: 3.000 GAM: 0.420  GM3:-0.3880
     1s    -20.299815    1.657029
     2p      1.788682    1.820207
  6     Sat Jan 20 17:55:17 CET 2018    EN: 2.550 GAM: 0.417  GM3:-0.0654
     2s    -15.292509    2.030071
     2p    -10.408465    1.801676
  7     Sat Jan 20 17:55:17 CET 2018    EN: 3.040 GAM: 0.444  GM3:-0.1301
     2s    -16.687725    2.226550
     2p    -13.175143    1.981921
  8     Sat Jan 20 17:55:17 CET 2018    EN: 3.440 GAM: 0.468  GM3: 0.0937
     2s    -20.924998    2.442614
     2p    -15.243501    2.233841
 no old-style atom pair restraing (fixing) potential
 
 molecular fragmentation (1/2 indicates fragments):
1111111111111111111111111111111111111111111111111111111111111111111111112
# atoms in fragment 1/2:    72     1
 fragment masses (1/2) :      664.56        4.00
CMA distance (Bohr)    :   0.000
constraining FC (au)   :  0.0500
 
             =======================================
             |                                     |
             |        S C C  calculation           |
             |                                     |
             =======================================
 #proc     :                      1
 Ncao      :                    220
 Nao       :                    220
 Nel       :                    250
 T(el)     :   300.0
 intcut    :    25.0
 scfconv   :  0.100E-05
   qconv   :  0.200E-04
 intneglect:  0.100E-07
 broydamp  :      0.400
 Nshell    :                    122
 iter      E             dE          RMSdq      gap      omega  full diag
   1   -149.4432576 -0.149443E+03  0.989E+00    4.82       0.0  T
   2   -149.9400201 -0.496762E+00  0.540E+00    5.36       1.0  T
   3   -149.8996050  0.404151E-01  0.221E+00    4.79       1.0  T
   4   -150.0408188 -0.141214E+00  0.581E-01    5.28       1.0  T
   5   -150.0480364 -0.721757E-02  0.208E-01    5.24       1.0  T
   6   -150.0484673 -0.430908E-03  0.745E-02    5.25       1.0  T
   7   -150.0485338 -0.664601E-04  0.269E-02    5.25       1.0  T
   8   -150.0485456 -0.118169E-04  0.943E-03    5.25       1.2  T
   9   -150.0485479 -0.231696E-05  0.547E-03    5.25       2.1  T
  10   -150.0485486 -0.677549E-06  0.207E-03    5.25       5.6  T
  11   -150.0485487 -0.116515E-06  0.749E-04    5.25      15.6  T
  12   -150.0485487 -0.221696E-07  0.337E-04    5.25      34.8  T
  13   -150.0485487 -0.562380E-08  0.114E-04    5.25     102.6  T
  14   -150.0485487 -0.998625E-09  0.411E-05    5.25     284.5  T
speedup  7.23
cpu  time for SCC    4.14 s
wall time for SCC    0.57 s

          eigenvalues
 #    :         113        114        115        116        117        118        119        120
 occ. :        2.000      2.000      2.000      2.000      2.000      2.000      2.000      2.000
 eps  :       -10.353    -10.353    -10.348    -10.292    -10.255    -10.185    -10.115    -10.089
 #    :         121        122        123        124        125        126        127        128
 occ. :        2.000      2.000      2.000      2.000      2.000      0.000      0.000      0.000
 eps  :       -10.089    -10.074    -10.074    -10.010     -9.903     -4.650     -4.603     -4.429
 #    :         129        130        131        132        133        134        135        136
 occ. :        0.000      0.000      0.000      0.000      0.000      0.000      0.000      0.000
 eps  :        -4.429     -4.396     -4.396     -4.325     -4.164      0.002      0.242      0.242
 
 
 Mulliken/CM5 charges        n(s)   n(p)   n(d)
     1 C   0.06806  0.14961   1.077  2.855  0.000
     2 C   0.06806  0.14961   1.077  2.855  0.000
     3 C   0.06806  0.14961   1.077  2.855  0.000
     4 C   0.06806  0.14961   1.077  2.855  0.000
     5 C   0.06806  0.14962   1.077  2.855  0.000
     6 C   0.06806  0.14962   1.077  2.855  0.000
     7 C   0.06806  0.14962   1.077  2.855  0.000
     8 C   0.06806  0.14962   1.077  2.855  0.000
     9 N  -0.03406 -0.27427   1.124  3.910  0.000
    10 N  -0.03406 -0.27427   1.124  3.910  0.000
    11 N  -0.03406 -0.27427   1.124  3.910  0.000
    12 N  -0.03406 -0.27427   1.124  3.910  0.000
    13 N  -0.03406 -0.27427   1.124  3.910  0.000
    14 N  -0.03406 -0.27427   1.124  3.910  0.000
    15 N  -0.03406 -0.27427   1.124  3.910  0.000
    16 N  -0.03406 -0.27427   1.124  3.910  0.000
    17 N  -0.03406 -0.27427   1.124  3.910  0.000
    18 N  -0.03406 -0.27427   1.124  3.910  0.000
    19 N  -0.03406 -0.27427   1.124  3.910  0.000
    20 N  -0.03406 -0.27427   1.124  3.910  0.000
    21 N  -0.03406 -0.27427   1.124  3.910  0.000
    22 N  -0.03406 -0.27427   1.124  3.910  0.000
    23 N  -0.03406 -0.27427   1.124  3.910  0.000
    24 N  -0.03406 -0.27427   1.124  3.910  0.000
    25 C   0.23363  0.40701   1.052  2.715  0.000
    26 C   0.23363  0.40701   1.052  2.715  0.000
    27 C   0.23363  0.40701   1.052  2.715  0.000
    28 C   0.23363  0.40701   1.052  2.715  0.000
    29 C   0.23363  0.40701   1.052  2.715  0.000
    30 C   0.23363  0.40701   1.052  2.715  0.000
    31 C   0.23363  0.40701   1.052  2.715  0.000
    32 C   0.23363  0.40701   1.052  2.715  0.000
    33 O  -0.39970 -0.44177   1.725  4.674  0.000
    34 O  -0.39970 -0.44177   1.725  4.674  0.000
    35 O  -0.39970 -0.44177   1.725  4.674  0.000
    36 O  -0.39970 -0.44177   1.725  4.674  0.000
    37 O  -0.39970 -0.44177   1.725  4.674  0.000
    38 O  -0.39970 -0.44177   1.725  4.674  0.000
    39 O  -0.39970 -0.44177   1.725  4.674  0.000
    40 O  -0.39970 -0.44177   1.725  4.674  0.000
    41 C   0.03208  0.05862   1.071  2.896  0.000
    42 C   0.03208  0.05862   1.071  2.896  0.000
    43 C   0.03208  0.05862   1.071  2.896  0.000
    44 C   0.03208  0.05862   1.071  2.896  0.000
    45 C   0.03208  0.05862   1.071  2.896  0.000
    46 C   0.03208  0.05862   1.071  2.896  0.000
    47 C   0.03208  0.05862   1.071  2.896  0.000
    48 C   0.03208  0.05862   1.071  2.896  0.000
    49 H   0.03510  0.11145   0.965  0.000  0.000
    50 H   0.03510  0.11145   0.965  0.000  0.000
    51 H   0.03510  0.11145   0.965  0.000  0.000
    52 H   0.03510  0.11145   0.965  0.000  0.000
    53 H   0.03510  0.11145   0.965  0.000  0.000
    54 H   0.03510  0.11145   0.965  0.000  0.000
    55 H   0.03510  0.11145   0.965  0.000  0.000
    56 H   0.03510  0.11145   0.965  0.000  0.000
    57 H   0.07357  0.16203   0.926  0.000  0.000
    58 H   0.07357  0.16203   0.926  0.000  0.000
    59 H   0.07357  0.16203   0.926  0.000  0.000
    60 H   0.07357  0.16203   0.926  0.000  0.000
    61 H   0.07357  0.16203   0.926  0.000  0.000
    62 H   0.07357  0.16203   0.926  0.000  0.000
    63 H   0.07357  0.16203   0.926  0.000  0.000
    64 H   0.07357  0.16203   0.926  0.000  0.000
    65 H   0.02519  0.10298   0.975  0.000  0.000
    66 H   0.02519  0.10298   0.975  0.000  0.000
    67 H   0.02519  0.10298   0.975  0.000  0.000
    68 H   0.02519  0.10298   0.975  0.000  0.000
    69 H   0.02519  0.10298   0.975  0.000  0.000
    70 H   0.02519  0.10298   0.975  0.000  0.000
    71 H   0.02519  0.10298   0.975  0.000  0.000
    72 H   0.02519  0.10298   0.975  0.000  0.000
    73 HE  0.00154 -0.01133   2.000 -0.001  0.000
 
 Wiberg/Mayer (AO) data. WBOs > 0.1 written file <wbo>
 largest (>0.05) Wiberg bond orders for each atom
           total WBO             WBO to atom ...
     1  C   3.978    N   21 0.995    N   17 0.995    C    5 0.957    H   69 0.948
     2  C   3.978    N   22 0.995    N   18 0.995    C    6 0.957    H   70 0.948
     3  C   3.978    N   23 0.995    N   19 0.995    C    7 0.957    H   71 0.948
     4  C   3.978    N   20 0.995    N   24 0.995    C    8 0.957    H   72 0.948
     5  C   3.978    N    9 0.995    N   13 0.995    C    1 0.957    H   65 0.948
     6  C   3.978    N   14 0.995    N   10 0.995    C    2 0.957    H   66 0.948
     7  C   3.978    N   15 0.995    N   11 0.995    C    3 0.957    H   67 0.948
     8  C   3.978    N   16 0.995    N   12 0.995    C    4 0.957    H   68 0.948
     9  N   3.418    C   25 1.101    C   41 0.997    C    5 0.995    O   33 0.150
    10  N   3.418    C   26 1.101    C   42 0.997    C    6 0.995    O   34 0.150
    11  N   3.418    C   27 1.101    C   43 0.997    C    7 0.995    O   35 0.150
    12  N   3.418    C   28 1.101    C   44 0.997    C    8 0.995    O   36 0.150
    13  N   3.418    C   29 1.101    C   45 0.997    C    5 0.995    O   37 0.150
    14  N   3.418    C   30 1.101    C   46 0.997    C    6 0.995    O   38 0.150
    15  N   3.418    C   31 1.101    C   47 0.997    C    7 0.995    O   39 0.150
    16  N   3.418    C   32 1.101    C   48 0.997    C    8 0.995    O   40 0.150
    17  N   3.418    C   25 1.101    C   42 0.997    C    1 0.995    O   33 0.150
    18  N   3.418    C   26 1.101    C   43 0.997    C    2 0.995    O   34 0.150
    19  N   3.418    C   27 1.101    C   48 0.997    C    3 0.995    O   35 0.150
    20  N   3.418    C   28 1.101    C   45 0.997    C    4 0.995    O   36 0.150
    21  N   3.418    C   29 1.101    C   46 0.997    C    1 0.995    O   37 0.150
    22  N   3.418    C   30 1.101    C   47 0.997    C    2 0.995    O   38 0.150
    23  N   3.418    C   31 1.101    C   44 0.997    C    3 0.995    O   39 0.150
    24  N   3.418    C   32 1.101    C   41 0.997    C    4 0.995    O   40 0.150
    25  C   3.966    O   33 1.701    N    9 1.101    N   17 1.101
    26  C   3.966    O   34 1.701    N   10 1.101    N   18 1.101
    27  C   3.966    O   35 1.701    N   11 1.101    N   19 1.101
    28  C   3.966    O   36 1.701    N   12 1.101    N   20 1.101
    29  C   3.966    O   37 1.701    N   13 1.101    N   21 1.101
    30  C   3.966    O   38 1.701    N   14 1.101    N   22 1.101
    31  C   3.966    O   39 1.701    N   15 1.101    N   23 1.101
    32  C   3.966    O   40 1.701    N   16 1.101    N   24 1.101
    33  O   2.061    C   25 1.701    N    9 0.150    N   17 0.150
    34  O   2.061    C   26 1.701    N   10 0.150    N   18 0.150
    35  O   2.061    C   27 1.701    N   11 0.150    N   19 0.150
    36  O   2.061    C   28 1.701    N   12 0.150    N   20 0.150
    37  O   2.061    C   29 1.701    N   13 0.150    N   21 0.150
    38  O   2.061    C   30 1.701    N   14 0.150    N   22 0.150
    39  O   2.061    C   31 1.701    N   15 0.150    N   23 0.150
    40  O   2.061    C   32 1.701    N   16 0.150    N   24 0.150
    41  C   3.970    N    9 0.997    N   24 0.997    H   49 0.965    H   57 0.957
    42  C   3.970    N   10 0.997    N   17 0.997    H   50 0.965    H   58 0.957
    43  C   3.970    N   11 0.997    N   18 0.997    H   51 0.965    H   59 0.957
    44  C   3.970    N   12 0.997    N   23 0.997    H   52 0.965    H   60 0.957
    45  C   3.970    N   13 0.997    N   20 0.997    H   53 0.965    H   61 0.957
    46  C   3.970    N   14 0.997    N   21 0.997    H   54 0.965    H   62 0.957
    47  C   3.970    N   15 0.997    N   22 0.997    H   55 0.965    H   63 0.957
    48  C   3.970    N   16 0.997    N   19 0.997    H   56 0.965    H   64 0.957
    49  H   0.998    C   41 0.965
    50  H   0.998    C   42 0.965
    51  H   0.998    C   43 0.965
    52  H   0.998    C   44 0.965
    53  H   0.998    C   45 0.965
    54  H   0.998    C   46 0.965
    55  H   0.998    C   47 0.965
    56  H   0.998    C   48 0.965
    57  H   0.994    C   41 0.957
    58  H   0.994    C   42 0.957
    59  H   0.994    C   43 0.957
    60  H   0.994    C   44 0.957
    61  H   0.994    C   45 0.957
    62  H   0.994    C   46 0.957
    63  H   0.994    C   47 0.957
    64  H   0.994    C   48 0.957
    65  H   0.999    C    5 0.948
    66  H   0.999    C    6 0.948
    67  H   0.999    C    7 0.948
    68  H   0.999    C    8 0.948
    69  H   0.999    C    1 0.948
    70  H   0.999    C    2 0.948
    71  H   0.999    C    3 0.948
    72  H   0.999    C    4 0.948
    73  HE -0.003
 density
 
 cube file module (SG, 7/16)
 cube_pthr     :   0.005
 cube_step     :   0.400
 non-zero P (%):  31.053   nmat:    7549
 Grid Boundaries (x y z) :
   11.7731971421482        11.7731971420098        8.93120215700820     
  -11.7731971445484       -11.7731971360484       -8.93120215480130     
 Total # of points                156645
 writing density.cub
 N    (numint) : ******
cpu  time for cube   41.64 s
wall time for cube   40.54 s
 
molecular dipole:
                 x           y           z       tot (Debye)
 q only:       -0.000      -0.000       0.000
   full:       -0.000      -0.000       0.000       0.000
molecular quadrupole (traceless):
                xx          xy          yy          xz          yz          zz
 q only:       50.790       0.000      50.790       0.000      -0.000    -101.579
  q+dip:       62.731      -0.000      62.731       0.000      -0.000    -125.463
   full:       63.637      -0.000      63.637       0.000      -0.000    -127.275
 SCC converged in                     14  cycles
 
SCC energy    :    -150.0485487
rep           :       1.5072946
ES            :      -0.0047085
AES           :       0.0141309
disp          :      -0.1064827
XB            :       0.0000000
fix           :       0.0000000
total E       :    -148.6477369
atomizationE  :      19.6866544    12353.56
(atE without considerung molecular charge,
 total energy contains solvation terms)
H-L gap (eV)  :          5.2535
 
       ===================================
       |          GMD driver             |
       ===================================
 
 
 MD time /ps        :   50.00
 dt /fs             :    4.00
 SCC accuracy       :    1.00
 temperature /K     :  298.15
 max steps          : 12500
 block length (av.) :   875
 dumpstep(trj) /fs  :   50.00    12
 dumpstep(coords)/fs: 1000.00   250
 minimum runtime(ps):   5.0
 maximum runtime(ps):  50.0
 H atoms mass (amu) :     4
 # deg. of freedom  :   135
 SHAKE on. # bonds  :                    84  all: T
 Berendsen THERMOSTAT on
 EQUILIBRATION mode
         time (ps)    <Epot>      Ekin   <T>   T     Etot
  q data taken from xtbrestart
  CAMM data taken from xtbrestart
      0    0.00      0.00000   0.0380    0.    0.  -148.60976
est. speed in wall clock h for 100 ps :  3.43
    200    0.80   -147.89139   0.0198   84.   93.  -148.61219
    400    1.60   -148.25961   0.0205   86.   96.  -148.60917
    600    2.40   -148.38284   0.0207   88.   97.  -148.61081
    800    3.20   -148.44458   0.0171   88.   80.  -148.61433
block <Epot> / <T> :    -148.63017   88.     drift:  0.99D+02   Tbath : 134.
   1000    4.00   -148.48092   0.0315   92.  147.  -148.59192
   1200    4.80   -148.50419   0.0284   99.  133.  -148.59211
   1400    5.60   -148.52079   0.0305  104.  143.  -148.58840
   1600    6.40   -148.53325   0.0286  108.  134.  -148.59182
block <Epot> / <T> :    -148.62096  131.     drift:  0.99D+02   Tbath : 201.
   1800    7.20   -148.54279   0.0373  111.  174.  -148.57589
   2000    8.00   -148.54919   0.0488  120.  228.  -148.56273
   2200    8.80   -148.55436   0.0444  127.  208.  -148.56999
   2400    9.60   -148.55870   0.0475  133.  222.  -148.56049
   2600   10.40   -148.56232   0.0429  138.  201.  -148.56496
block <Epot> / <T> :    -148.60682  198.     drift:  0.99D+02   Tbath : 298.
   2800   11.20   -148.56451   0.0595  147.  279.  -148.52670
   3000   12.00   -148.56593   0.0733  157.  343.  -148.52224
   3200   12.80   -148.56713   0.0681  166.  319.  -148.52080
   3400   13.60   -148.56814   0.0630  174.  295.  -148.51277
block <Epot> / <T> :    -148.58622  293.     drift:  0.15D-01   Tbath : 298.
   3600   14.40   -148.56906   0.0685  181.  321.  -148.52397
   3800   15.20   -148.56987   0.0639  187.  299.  -148.51674
   4000   16.00   -148.57067   0.0561  193.  262.  -148.52083
   4200   16.80   -148.57139   0.0645  197.  302.  -148.52162
block <Epot> / <T> :    -148.58549  298.     drift:  0.13D-01   Tbath : 298.
   4400   17.60   -148.57208   0.0653  202.  305.  -148.52272
   4600   18.40   -148.57271   0.0713  206.  334.  -148.51589
   4800   19.20   -148.57334   0.0589  210.  276.  -148.52920
   5000   20.00   -148.57389   0.0556  214.  260.  -148.52956
   5200   20.80   -148.57435   0.0696  217.  326.  -148.51809
block <Epot> / <T> :    -148.58686  298.     drift:  0.61D-02   Tbath : 298.
   5400   21.60   -148.57481   0.0569  220.  266.  -148.52845
   5600   22.40   -148.57524   0.0593  223.  278.  -148.52670
   5800   23.20   -148.57560   0.0622  225.  291.  -148.52520
   6000   24.00   -148.57591   0.0694  228.  325.  -148.51625
block <Epot> / <T> :    -148.58593  298.     drift: -0.51D-04   Tbath : 298.
 GOOD AVERAGES REACHED
 average properties 
 Epot               :  -148.600346085801     
 Epot (accurate SCC):  -148.600313208543     
 Ekin               :  4.900250093596063E-002
 Etot               :  -148.551343584865     
 T                  :   229.240706227326     
 normal exit of md()
 
 MD time /ps        :   50.00
 dt /fs             :    4.00
 SCC accuracy       :    1.00
 temperature /K     :  298.15
 max steps          : 50000
 block length (av.) :   875
 dumpstep(trj) /fs  :   50.00    12
 dumpstep(coords)/fs: 1000.00   250
 minimum runtime(ps):  50.0
 maximum runtime(ps): 200.0
 H atoms mass (amu) :     4
 # deg. of freedom  :   135
 SHAKE on. # bonds  :                    84  all: T
 Berendsen THERMOSTAT on
 GMD mode
 RESTART
         time (ps)    <Epot>      Ekin   <T>   T     Etot
  q data taken from xtbrestart
  CAMM data taken from xtbrestart
 reading input structure for Re-R0 averaging
      0    0.00      0.00000   0.0615    0.    0.  -148.52384
est. speed in wall clock h for 100 ps :  3.55
    200    0.80   -147.84568   0.0733  295.  343.  -148.51582
    400    1.60   -148.21416   0.0622  296.  291.  -148.52169
    600    2.40   -148.33788   0.0708  298.  331.  -148.51512
    800    3.20   -148.39984   0.0575  298.  269.  -148.53107
block <Epot> / <T> :    -148.58547  298.     drift:  0.99D+02   Tbath : 298.
   1000    4.00   -148.43712   0.0594  298.  278.  -148.51883
   1200    4.80   -148.46192   0.0651  298.  305.  -148.52154
   1400    5.60   -148.47961   0.0598  298.  280.  -148.51728
   1600    6.40   -148.49278   0.0665  298.  311.  -148.51032
block <Epot> / <T> :    -148.58561  297.     drift:  0.99D+02   Tbath : 298.
   1800    7.20   -148.50301   0.0632  298.  296.  -148.52852
   2000    8.00   -148.51123   0.0643  298.  301.  -148.51184
   2200    8.80   -148.51786   0.0590  298.  276.  -148.52616
   2400    9.60   -148.52347   0.0652  298.  305.  -148.52106
   2600   10.40   -148.52817   0.0601  298.  281.  -148.52446
block <Epot> / <T> :    -148.58476  298.     drift:  0.99D+02   Tbath : 298.
   2800   11.20   -148.53221   0.0583  298.  273.  -148.53113
   3000   12.00   -148.53568   0.0598  298.  280.  -148.51340
   3200   12.80   -148.53877   0.0615  298.  288.  -148.52480
   3400   13.60   -148.54148   0.0643  298.  301.  -148.52245
block <Epot> / <T> :    -148.58469  298.     drift:  0.32D-03   Tbath : 298.
   3600   14.40   -148.54386   0.0656  298.  307.  -148.51724
   3800   15.20   -148.54602   0.0626  298.  293.  -148.52057
   4000   16.00   -148.54796   0.0662  298.  310.  -148.52468
   4200   16.80   -148.54975   0.0672  298.  314.  -148.51756
block <Epot> / <T> :    -148.58506  299.     drift:  0.17D-03   Tbath : 298.
   4400   17.60   -148.55136   0.0667  298.  312.  -148.51723
   4600   18.40   -148.55285   0.0667  298.  312.  -148.52218
   4800   19.20   -148.55419   0.0639  298.  299.  -148.52012
   5000   20.00   -148.55542   0.0667  298.  312.  -148.51786
   5200   20.80   -148.55654   0.0559  298.  261.  -148.52593
block <Epot> / <T> :    -148.58504  298.     drift: -0.12D-03   Tbath : 298.
   5400   21.60   -148.55758   0.0677  298.  317.  -148.51677
   5600   22.40   -148.55853   0.0597  298.  279.  -148.52639
   5800   23.20   -148.55940   0.0698  298.  327.  -148.51743
   6000   24.00   -148.56023   0.0659  298.  308.  -148.52130
block <Epot> / <T> :    -148.58417  298.     drift:  0.16D-03   Tbath : 298.
   6200   24.80   -148.56102   0.0627  298.  293.  -148.51942
   6400   25.60   -148.56176   0.0633  298.  296.  -148.52018
   6600   26.40   -148.56247   0.0572  298.  268.  -148.52379
   6800   27.20   -148.56314   0.0579  298.  271.  -148.52945
   7000   28.00   -148.56378   0.0659  298.  308.  -148.52082
block <Epot> / <T> :    -148.58525  299.     drift:  0.30D-04   Tbath : 298.
   7200   28.80   -148.56439   0.0687  298.  321.  -148.52576
   7400   29.60   -148.56498   0.0527  298.  247.  -148.51781
   7600   30.40   -148.56550   0.0592  298.  277.  -148.52440
   7800   31.20   -148.56600   0.0736  298.  345.  -148.52245
block <Epot> / <T> :    -148.58540  298.     drift: -0.22D-03   Tbath : 298.
   8000   32.00   -148.56649   0.0622  298.  291.  -148.52600
   8200   32.80   -148.56696   0.0611  298.  286.  -148.52360
   8400   33.60   -148.56739   0.0605  298.  283.  -148.51570
   8600   34.40   -148.56780   0.0641  298.  300.  -148.52497
block <Epot> / <T> :    -148.58519  298.     drift: -0.32D-03   Tbath : 298.
   8800   35.20   -148.56818   0.0517  298.  242.  -148.52954
   9000   36.00   -148.56856   0.0657  298.  307.  -148.51531
   9200   36.80   -148.56892   0.0660  298.  309.  -148.52559
   9400   37.60   -148.56927   0.0643  298.  301.  -148.51558
   9600   38.40   -148.56961   0.0651  298.  305.  -148.52413
block <Epot> / <T> :    -148.58538  299.     drift: -0.17D-04   Tbath : 298.
   9800   39.20   -148.56995   0.0548  298.  256.  -148.52239
  10000   40.00   -148.57026   0.0608  298.  284.  -148.52190
  10200   40.80   -148.57056   0.0596  298.  279.  -148.51916
  10400   41.60   -148.57086   0.0602  298.  282.  -148.52758
block <Epot> / <T> :    -148.58594  299.     drift: -0.18D-03   Tbath : 298.
  10600   42.40   -148.57117   0.0635  298.  297.  -148.52061
  10800   43.20   -148.57145   0.0659  298.  308.  -148.52289
  11000   44.00   -148.57172   0.0538  298.  252.  -148.52118
  11200   44.80   -148.57198   0.0784  298.  367.  -148.51334
block <Epot> / <T> :    -148.58654  298.     drift: -0.46D-03   Tbath : 298.
  11400   45.60   -148.57224   0.0689  298.  322.  -148.51813
  11600   46.40   -148.57247   0.0581  298.  272.  -148.52010
  11800   47.20   -148.57269   0.0601  298.  281.  -148.52096
  12000   48.00   -148.57291   0.0618  298.  289.  -148.52839
  12200   48.80   -148.57311   0.0604  298.  283.  -148.51612
block <Epot> / <T> :    -148.58557  297.     drift: -0.12D-03   Tbath : 298.
  12400   49.60   -148.57331   0.0566  298.  265.  -148.52671
 GOOD AVERAGES REACHED
 average properties 
 Epot               :  -148.585282572208     
 Epot (accurate SCC):  -148.585127795737     
 Ekin               :  6.371285398086338E-002
 Etot               :  -148.521569718227     
 T                  :   298.057841199147     
 corrections to Re Z-matrix:
   1  C     0.000000      0.0000      0.0000     0    0    0
   2  C    -0.026933      0.0000      0.0000     1    0    0
   3  C    -0.027880     -0.0136      0.0000     2    1    0
   4  C    -0.027172     -0.0239      0.0939     1    2    3
   5  C     0.000000     -0.1046      0.0377     1    2    3
   6  C     0.000000     -0.0063      0.0633     2    1    3
   7  C     0.000000      0.0070     -0.0925     3    2    1
   8  C     0.000000     -0.1195     -0.1204     4    1    2
   9  N     0.000000     -0.0756      0.4900     5    1    2
  10  N     0.000000     -0.1049     -0.3690     6    2    1
  11  N     0.000000     -0.0922      0.3107     7    3    2
  12  N     0.000000     -0.0671     -0.4875     8    4    1
  13  N     0.000000     -0.0859      0.5163     5    1    2
  14  N     0.000000     -0.0962     -0.4073     6    2    1
  15  N     0.000000     -0.0915      0.3368     7    3    2
  16  N     0.000000     -0.0881     -0.4931     8    4    1
  17  N     0.000000      0.4876      0.1331     1    2    3
  18  N     0.000000     -0.1186      0.3293     2    1    3
  19  N     0.000000      0.2407     -0.4789     3    2    1
  20  N     0.000000      0.5046     -0.2311     4    1    2
  21  N     0.000000     -0.2889      0.4491     1    2    3
  22  N     0.000000      0.2416      0.3180     2    1    3
  23  N     0.000000     -0.1148     -0.5163     3    2    1
  24  N     0.000000     -0.2974     -0.5083     4    1    2
  25  C     0.000000     -0.6573      1.7145     9    5    1
  26  C     0.000000     -0.6905      1.9919    10    6    2
  27  C     0.000000     -0.6853      1.8693    11    7    3
  28  C     0.000000     -0.6369      0.4172    12    8    4
  29  C     0.000000     -0.6361      0.2627    13    5    1
  30  C     0.000000     -0.6164      0.3237    14    6    2
  31  C     0.000000     -0.6835      0.3317    15    7    3
  32  C     0.000000     -0.6600      1.6855    16    8    4
  33  O     0.000000     -0.3070      0.1833    25    9    5
  34  O     0.000000     -0.3014     -0.3133    26   10    6
  35  O     0.000000     -0.3046      0.4486    27   11    7
  36  O     0.000000     -0.2528     -0.4270    28   12    8
  37  O     0.000000     -0.2767     -0.4324    29   13    5
  38  O     0.000000     -0.2714     -0.2499    30   14    6
  39  O     0.000000     -0.2830     -0.3330    31   15    7
  40  O     0.000000     -0.2996      0.0298    32   16    8
  41  C     0.000000     -1.2009      0.9960     9    5    1
  42  C     0.000000     -1.1160     -0.4466    10    6    2
  43  C     0.000000     -1.1275      0.7714    11    7    3
  44  C     0.000000     -1.1664     -1.0280    12    8    4
  45  C     0.000000     -1.1499      0.6604    13    5    1
  46  C     0.000000     -1.1173     -0.9832    14    6    2
  47  C     0.000000     -1.1787      0.4146    15    7    3
  48  C     0.000000     -1.1667     -0.5983    16    8    4
  49  H     0.000000     -0.2357     -1.1928    41    9    5
  50  H     0.000000     -0.2480      0.4709    42   10    6
  51  H     0.000000     -0.2422     -0.9839    43   11    7
  52  H     0.000000     -0.2392      1.3259    44   12    8
  53  H     0.000000     -0.2629     -0.6215    45   13    5
  54  H     0.000000     -0.2224      1.3315    46   14    6
  55  H     0.000000     -0.2667     -0.3694    47   15    7
  56  H     0.000000     -0.2656      0.5835    48   16    8
  57  H     0.000000      0.1609     -0.7729    41    9    5
  58  H     0.000000      0.3142      0.8403    42   10    6
  59  H     0.000000      0.2016     -0.5765    43   11    7
  60  H     0.000000      0.1632      0.8187    44   12    8
  61  H     0.000000      0.3130     -0.9485    45   13    5
  62  H     0.000000      0.1505      0.8393    46   14    6
  63  H     0.000000      0.3297     -0.7822    47   15    7
  64  H     0.000000      0.3193      0.9850    48   16    8
  65  H     0.000000     -0.0849      0.4891     5    1    2
  66  H     0.000000     -0.0862     -0.3676     6    2    1
  67  H     0.000000     -0.0689      0.3155     7    3    2
  68  H     0.000000     -0.0875     -0.4737     8    4    1
  69  H     0.000000     -0.2870      0.5227     1    2    3
  70  H     0.000000     -0.5835      0.6633     2    1    3
  71  H     0.000000     -0.5936     -0.6995     3    2    1
  72  H     0.000000     -0.2783     -0.6051     4    1    2
  73  HE    0.031449      0.5573      0.2131    30   14    6
Be      (a,b,c, in MHz) :     95.283     95.283     84.564
Be - B0 (a,b,c, in MHz) :     -0.614     -0.605     -0.564
 corrected structure on <xtb_mdav.coord>
 normal exit of md()
 
speedup  7.40
cpu  time for all   19 h 58 m 25.1 s
wall time for all    2 h 41 m 52.5 s
