 
        ______________________________________
       |                                      |
       |           ==================         |
       |                 x T B                |
       |           ==================         |
       |               S. Grimme              |
       |        Universitaet Bonn, MCTC       |
       |         2015-18, Version 5.0         |
       |      Sat Jan 20 11:00:33 CET 2018    |
       |______________________________________|
 
        This code comes without any warranty
        for non-commercial, academia use only.
        Cite GFN-xTB work as:
        S. Grimme, C. Bannwarth, P. Shushkov
        JCTC, 13 (2017) 1989-2009
        for GFN2:
        C. Bannwarth, S. Ehlert, S. Grimme
        to be published.
        sTDA-xTB:
        S. Grimme  &  C. Bannwarth, JCP 145 (2016) 054103
        in the mass-spec context additionally:
        V. Asgeirsson, C.Bauer, S. Grimme, Chem. Sci. 8 (2017) 4879
 
        with help from
        P. Shushkov, G. Brandenburg, S. Dohm, J. Pisarek,
        F. März, M. Checinski, S. Ehrlich, S. Spicher, 
        P. Pracht, E. Caldeweyher, S. Ehlert, and C. Bannwarth.
 
        usage        :
        xtb <coord_file> [options]
        where <coord_file> is a valid file of TM)
        (*coord, Bohr) or xmol (*xyz, Angstroem)
        format.

        options:
        -chrg <int>   : molecular charge
        -uhf  <int>   : # of unpaired electrons(=2*S)
        -nox          : skip second, extended part in sTDA-xTB
        -pop          : do population analysis
                      : (default for -nox)
        -mowr <real>  : cut MO write above (def.3 Eh)
        -molden       : write formatted molden file
        -parx <file>  : read parameters for sTDA-xTB
                        calc (def:~/.param_stda2.xtb)
        -parv <file>  : read parameters for vTB part in
                        sTDA-xTB (def: ~/.param_stda1.xtb)
        -xtemp <real> : el. temp for xTB (def. 0 K)
        -etemp <real> : el. temp for GFN (def. 300 K)
        -fod          : do a xTB calc. of the FOD
                        and write molden.input file 
                        with appropriate occupations
                        for plotting. Def. T=12500 K
 
        -gfn          : use GFN-xTB
        -grad         : GFN-xTB gradient
        -acc <real>   : GFN-xTB accuracy (def. 1.0)
        -opt [level]  : optimize at GFN-xTB
                      : level=crude,vloose,loose,
                      :       tight,vtight
        -hess         : compute Hessian at GFN-xTB
        -ohess        : optimize and compute Hessian
        -omd          : optimize and do MD
        -siman        : conformational search
        -screen       : opt. loop over ensemble
        -gmd          : annealed MD for GMD procedure
        -modef        : vib mode following
        -gbsa [string1] [string2]
                        use GBSA implicit solvent
                        for solvent [string1] and
                        solvation state [string2]=
                        reference, bar1M (default=1M)
        additional GFN/opt/MD/siman options read from
        $XTBHOME/.xtbrc or $set in coordinate file
 
       spin and charge state information can be on:
       <.CHRG> (charge) and <.UHF> (=nalpha-nbeta)
       -uhf and -chrg override the file info.
       useful machine settings:
       setenv MKL_NUM_THREADS <NCORE_ON_YOUR_MACHINE>
       setenv OMP_STACKSIZE 500m
       limit stacksize unlimited
 
       total energies in Eh, gaps/HL energies in eV
       please read REVISION and HOWTO files carefully
 =============================
  # OMP threads =                     1
 =============================
 
 xtbhome directory:/Applications/xtb/
 
 argument                      1 :-gmd
 
 number of atoms            :    73
 number of electrons        :   256
 charge                     :  0
 spin                       : 0.0
 first test random number   :  0.7274
 
 
KAB for pair M(3d)-M(3d) :  1.1000
KAB for pair M(4d)-M(4d) :  1.2000
KAB for pair M(5d)-M(5d) :  1.2000
 -----------------------------------------
  G F N (Geometry, Frequency, Non-covalent)
        parametrization, version                     2
 /Applications/xtb/.param_gfn2.xtb
 -----------------------------------------
      method parameters     
 k(s)        :  1.8500
 k(p)        :  2.2500
 k(d)        :  2.0000
 k(f)        :  0.0000
 alphaj      :  1.0000
 kEN (H0ij)  : -2.3620
 D3 a1       :  0.6900
 D3 a2       :  4.0530
 D3 s8       :  2.0000
 D3atm       :  1.0000
 AESdamp     :  5.5000
 AESrad      :  1.9230
 expscalexp  : -0.2500
 
     -------------------------
     ! NO SOLVENT MODEL USED !
     -------------------------
 
 doing EN charges ...
 sum q :  0.2886580D-14
 point charge moment (au)
     X       Y       Z   
  -0.0000   0.0000  -0.0000  total (Debye):    0.000
 
            Z      q(EN)   CN      Cart. coordinates
     1  C   4.0    0.22    4.35    -5.99131    -3.04200     0.00000
     2  C   4.0    0.22    4.35     3.04200    -5.99131     0.00000
     3  C   4.0    0.22    4.35     5.99131     3.04200     0.00000
     4  C   4.0    0.22    4.35    -3.04200     5.99131    -0.00000
     5  C   4.0    0.22    4.35    -6.71631    -0.19889     0.00000
     6  C   4.0    0.22    4.35     0.19889    -6.71631     0.00000
     7  C   4.0    0.22    4.35     6.71631     0.19889     0.00000
     8  C   4.0    0.22    4.35    -0.19889     6.71631    -0.00000
     9  N   5.0   -0.20    3.28    -5.62166     0.72678    -2.30674
    10  N   5.0   -0.20    3.28    -0.72678    -5.62166    -2.30674
    11  N   5.0   -0.20    3.28     5.62166    -0.72678    -2.30674
    12  N   5.0   -0.20    3.28     0.72678     5.62166     2.30674
    13  N   5.0   -0.20    3.28    -5.62166     0.72678     2.30674
    14  N   5.0   -0.20    3.28    -0.72678    -5.62166     2.30674
    15  N   5.0   -0.20    3.28     5.62166    -0.72678     2.30674
    16  N   5.0   -0.20    3.28     0.72678     5.62166    -2.30674
    17  N   5.0   -0.20    3.28    -4.58711    -3.33043    -2.30678
    18  N   5.0   -0.20    3.28     3.33043    -4.58711    -2.30678
    19  N   5.0   -0.20    3.28     4.58711     3.33043    -2.30678
    20  N   5.0   -0.20    3.28    -3.33043     4.58711     2.30678
    21  N   5.0   -0.20    3.28    -4.58711    -3.33043     2.30678
    22  N   5.0   -0.20    3.28     3.33043    -4.58711     2.30678
    23  N   5.0   -0.20    3.28     4.58711     3.33043     2.30678
    24  N   5.0   -0.20    3.28    -3.33043     4.58711    -2.30678
    25  C   4.0    0.47    3.32    -4.63808    -1.18290    -3.78284
    26  C   4.0    0.47    3.32     1.18290    -4.63808    -3.78284
    27  C   4.0    0.47    3.32     4.63808     1.18290    -3.78284
    28  C   4.0    0.47    3.32    -1.18290     4.63808     3.78284
    29  C   4.0    0.47    3.32    -4.63808    -1.18290     3.78284
    30  C   4.0    0.47    3.32     1.18290    -4.63808     3.78284
    31  C   4.0    0.47    3.32     4.63808     1.18290     3.78284
    32  C   4.0    0.47    3.32    -1.18290     4.63808    -3.78284
    33  O   6.0   -0.37    1.07    -4.01847    -1.02489    -5.95025
    34  O   6.0   -0.37    1.07     1.02489    -4.01847    -5.95025
    35  O   6.0   -0.37    1.07     4.01847     1.02489    -5.95025
    36  O   6.0   -0.37    1.07    -1.02489     4.01847     5.95025
    37  O   6.0   -0.37    1.07    -4.01847    -1.02489     5.95025
    38  O   6.0   -0.37    1.07     1.02489    -4.01847     5.95025
    39  O   6.0   -0.37    1.07     4.01847     1.02489     5.95025
    40  O   6.0   -0.37    1.07    -1.02489     4.01847    -5.95025
    41  C   4.0    0.25    4.16    -5.57913     3.31165    -3.13833
    42  C   4.0    0.25    4.16    -3.31165    -5.57913    -3.13833
    43  C   4.0    0.25    4.16     5.57913    -3.31165    -3.13833
    44  C   4.0    0.25    4.16     3.31165     5.57913     3.13833
    45  C   4.0    0.25    4.16    -5.57913     3.31165     3.13833
    46  C   4.0    0.25    4.16    -3.31165    -5.57913     3.13833
    47  C   4.0    0.25    4.16     5.57913    -3.31165     3.13833
    48  C   4.0    0.25    4.16     3.31165     5.57913    -3.13833
    49  H   1.0   -0.05    1.00    -7.27208     4.31649    -2.49273
    50  H   1.0   -0.05    1.00    -4.31649    -7.27208    -2.49273
    51  H   1.0   -0.05    1.00     7.27208    -4.31649    -2.49273
    52  H   1.0   -0.05    1.00     4.31649     7.27208     2.49273
    53  H   1.0   -0.05    1.00    -7.27208     4.31649     2.49273
    54  H   1.0   -0.05    1.00    -4.31649    -7.27208     2.49273
    55  H   1.0   -0.05    1.00     7.27208    -4.31649     2.49273
    56  H   1.0   -0.05    1.00     4.31649     7.27208    -2.49273
    57  H   1.0   -0.05    1.01    -5.47418     3.24935    -5.21138
    58  H   1.0   -0.05    1.01    -3.24935    -5.47418    -5.21138
    59  H   1.0   -0.05    1.01     5.47418    -3.24935    -5.21138
    60  H   1.0   -0.05    1.01     3.24935     5.47418     5.21138
    61  H   1.0   -0.05    1.01    -5.47418     3.24935     5.21138
    62  H   1.0   -0.05    1.01    -3.24935    -5.47418     5.21138
    63  H   1.0   -0.05    1.01     5.47418    -3.24935     5.21138
    64  H   1.0   -0.05    1.01     3.24935     5.47418    -5.21138
    65  H   1.0   -0.05    1.00    -8.78438     0.12435     0.00000
    66  H   1.0   -0.05    1.00    -0.12435    -8.78438     0.00000
    67  H   1.0   -0.05    1.00     8.78438    -0.12435    -0.00000
    68  H   1.0   -0.05    1.00     0.12435     8.78438    -0.00000
    69  H   1.0   -0.05    1.00    -7.65206    -4.31608     0.00000
    70  H   1.0   -0.05    1.00     4.31608    -7.65206     0.00000
    71  H   1.0   -0.05    1.00     7.65206     4.31608    -0.00000
    72  H   1.0   -0.05    1.00    -4.31608     7.65206    -0.00000
    73  KR  8.0   -0.13    0.85    -0.00000     0.00000    -0.00000
 
  Z AO/shell   Hii/eV     exponent
  1     Sat Jan 20 17:55:17 CET 2018    EN: 2.200 GAM: 0.531  GM3:-0.4370
     1s    -10.248275    1.266496
  6     Sat Jan 20 17:55:17 CET 2018    EN: 2.550 GAM: 0.417  GM3:-0.0654
     2s    -15.292509    2.030071
     2p    -10.408465    1.801676
  7     Sat Jan 20 17:55:17 CET 2018    EN: 3.040 GAM: 0.444  GM3:-0.1301
     2s    -16.687725    2.226550
     2p    -13.175143    1.981921
  8     Sat Jan 20 17:55:17 CET 2018    EN: 3.440 GAM: 0.468  GM3: 0.0937
     2s    -20.924998    2.442614
     2p    -15.243501    2.233841
 36     Sun Jan 21 08:50:06 CET 2018    EN: 3.000 GAM: 0.916  GM3:-0.0061
     4s    -28.741095    2.717432
     4p    -13.074912    2.238847
     4d     -1.204386    2.130370
 no old-style atom pair restraing (fixing) potential
 
 molecular fragmentation (1/2 indicates fragments):
1111111111111111111111111111111111111111111111111111111111111111111111112
# atoms in fragment 1/2:    72     1
 fragment masses (1/2) :      664.56       83.80
CMA distance (Bohr)    :   0.000
constraining FC (au)   :  0.0500
 
             =======================================
             |                                     |
             |        S C C  calculation           |
             |                                     |
             =======================================
 #proc     :                      1
 Ncao      :                    226
 Nao       :                    225
 Nel       :                    256
 T(el)     :   300.0
 intcut    :    25.0
 scfconv   :  0.100E-05
   qconv   :  0.200E-04
 intneglect:  0.100E-07
 broydamp  :      0.400
 Nshell    :                    123
 iter      E             dE          RMSdq      gap      omega  full diag
   1   -152.9265218 -0.152927E+03  0.989E+00    4.80       0.0  T
   2   -153.4275750 -0.501053E+00  0.540E+00    5.32       1.0  T
   3   -153.3897979  0.377771E-01  0.221E+00    4.76       1.0  T
   4   -153.5280803 -0.138282E+00  0.580E-01    5.27       1.0  T
   5   -153.5352482 -0.716798E-02  0.210E-01    5.22       1.0  T
   6   -153.5356887 -0.440437E-03  0.743E-02    5.23       1.0  T
   7   -153.5357605 -0.718110E-04  0.275E-02    5.23       1.0  T
   8   -153.5357740 -0.134765E-04  0.101E-02    5.23       1.2  T
   9   -153.5357768 -0.285067E-05  0.545E-03    5.23       2.1  T
  10   -153.5357773 -0.507276E-06  0.200E-03    5.23       5.9  T
  11   -153.5357774 -0.110743E-06  0.695E-04    5.23      16.9  T
  12   -153.5357775 -0.157891E-07  0.361E-04    5.23      32.4  T
  13   -153.5357775 -0.647682E-08  0.117E-04    5.23      99.7  T
  14   -153.5357775 -0.109631E-08  0.369E-05    5.23     317.2  T
speedup  8.08
cpu  time for SCC    2.35 s
wall time for SCC    0.29 s

          eigenvalues
 #    :         116        117        118        119        120        121        122        123
 occ. :        2.000      2.000      2.000      2.000      2.000      2.000      2.000      2.000
 eps  :       -10.385    -10.352    -10.352    -10.307    -10.293    -10.196    -10.135    -10.118
 #    :         124        125        126        127        128        129        130        131
 occ. :        2.000      2.000      2.000      2.000      2.000      0.000      0.000      0.000
 eps  :       -10.118    -10.088    -10.088    -10.029     -9.942     -4.709     -4.606     -4.497
 #    :         132        133        134        135        136        137        138        139
 occ. :        0.000      0.000      0.000      0.000      0.000      0.000      0.000      0.000
 eps  :        -4.497     -4.423     -4.423     -4.363     -4.203     -0.431     -0.405     -0.371
 
 
 Mulliken/CM5 charges        n(s)   n(p)   n(d)
     1 C   0.06825  0.14933   1.078  2.854  0.000
     2 C   0.06825  0.14933   1.078  2.854  0.000
     3 C   0.06825  0.14933   1.078  2.854  0.000
     4 C   0.06825  0.14933   1.078  2.854  0.000
     5 C   0.06825  0.14933   1.078  2.854  0.000
     6 C   0.06825  0.14933   1.078  2.854  0.000
     7 C   0.06825  0.14933   1.078  2.854  0.000
     8 C   0.06825  0.14933   1.078  2.854  0.000
     9 N  -0.03374 -0.27527   1.125  3.909  0.000
    10 N  -0.03374 -0.27527   1.125  3.909  0.000
    11 N  -0.03374 -0.27527   1.125  3.909  0.000
    12 N  -0.03374 -0.27527   1.125  3.909  0.000
    13 N  -0.03374 -0.27527   1.125  3.909  0.000
    14 N  -0.03374 -0.27527   1.125  3.909  0.000
    15 N  -0.03374 -0.27527   1.125  3.909  0.000
    16 N  -0.03374 -0.27527   1.125  3.909  0.000
    17 N  -0.03374 -0.27527   1.125  3.909  0.000
    18 N  -0.03374 -0.27527   1.125  3.909  0.000
    19 N  -0.03374 -0.27527   1.125  3.909  0.000
    20 N  -0.03374 -0.27527   1.125  3.909  0.000
    21 N  -0.03374 -0.27527   1.125  3.909  0.000
    22 N  -0.03374 -0.27527   1.125  3.909  0.000
    23 N  -0.03374 -0.27527   1.125  3.909  0.000
    24 N  -0.03374 -0.27527   1.125  3.909  0.000
    25 C   0.23507  0.40761   1.052  2.713  0.000
    26 C   0.23507  0.40761   1.052  2.713  0.000
    27 C   0.23507  0.40761   1.052  2.713  0.000
    28 C   0.23507  0.40761   1.052  2.713  0.000
    29 C   0.23507  0.40761   1.052  2.713  0.000
    30 C   0.23507  0.40761   1.052  2.713  0.000
    31 C   0.23507  0.40761   1.052  2.713  0.000
    32 C   0.23507  0.40761   1.052  2.713  0.000
    33 O  -0.39960 -0.44190   1.725  4.674  0.000
    34 O  -0.39960 -0.44190   1.725  4.674  0.000
    35 O  -0.39960 -0.44190   1.725  4.674  0.000
    36 O  -0.39960 -0.44190   1.725  4.674  0.000
    37 O  -0.39960 -0.44190   1.725  4.674  0.000
    38 O  -0.39960 -0.44190   1.725  4.674  0.000
    39 O  -0.39960 -0.44190   1.725  4.674  0.000
    40 O  -0.39960 -0.44190   1.725  4.674  0.000
    41 C   0.03228  0.05834   1.071  2.896  0.000
    42 C   0.03228  0.05834   1.071  2.896  0.000
    43 C   0.03228  0.05834   1.071  2.896  0.000
    44 C   0.03228  0.05834   1.071  2.896  0.000
    45 C   0.03228  0.05834   1.071  2.896  0.000
    46 C   0.03228  0.05834   1.071  2.896  0.000
    47 C   0.03228  0.05834   1.071  2.896  0.000
    48 C   0.03228  0.05834   1.071  2.896  0.000
    49 H   0.03528  0.11162   0.965  0.000  0.000
    50 H   0.03528  0.11162   0.965  0.000  0.000
    51 H   0.03528  0.11162   0.965  0.000  0.000
    52 H   0.03528  0.11162   0.965  0.000  0.000
    53 H   0.03528  0.11162   0.965  0.000  0.000
    54 H   0.03528  0.11162   0.965  0.000  0.000
    55 H   0.03528  0.11162   0.965  0.000  0.000
    56 H   0.03528  0.11162   0.965  0.000  0.000
    57 H   0.07398  0.16246   0.926  0.000  0.000
    58 H   0.07398  0.16246   0.926  0.000  0.000
    59 H   0.07398  0.16246   0.926  0.000  0.000
    60 H   0.07398  0.16246   0.926  0.000  0.000
    61 H   0.07398  0.16246   0.926  0.000  0.000
    62 H   0.07398  0.16246   0.926  0.000  0.000
    63 H   0.07398  0.16246   0.926  0.000  0.000
    64 H   0.07398  0.16246   0.926  0.000  0.000
    65 H   0.02527  0.10310   0.975  0.000  0.000
    66 H   0.02527  0.10310   0.975  0.000  0.000
    67 H   0.02527  0.10310   0.975  0.000  0.000
    68 H   0.02527  0.10310   0.975  0.000  0.000
    69 H   0.02528  0.10310   0.975  0.000  0.000
    70 H   0.02528  0.10310   0.975  0.000  0.000
    71 H   0.02528  0.10310   0.975  0.000  0.000
    72 H   0.02528  0.10310   0.975  0.000  0.000
    73 KR -0.02454 -0.00008   2.000  5.992  0.032
 
 Wiberg/Mayer (AO) data. WBOs > 0.1 written file <wbo>
 largest (>0.05) Wiberg bond orders for each atom
           total WBO             WBO to atom ...
     1  C   3.978    N   21 0.995    N   17 0.995    C    5 0.957    H   69 0.948
     2  C   3.978    N   22 0.995    N   18 0.995    C    6 0.957    H   70 0.948
     3  C   3.978    N   23 0.995    N   19 0.995    C    7 0.957    H   71 0.948
     4  C   3.978    N   20 0.995    N   24 0.995    C    8 0.957    H   72 0.948
     5  C   3.978    N   13 0.995    N    9 0.995    C    1 0.957    H   65 0.948
     6  C   3.978    N   14 0.995    N   10 0.995    C    2 0.957    H   66 0.948
     7  C   3.978    N   15 0.995    N   11 0.995    C    3 0.957    H   67 0.948
     8  C   3.978    N   12 0.995    N   16 0.995    C    4 0.957    H   68 0.948
     9  N   3.419    C   25 1.099    C   41 0.997    C    5 0.995    O   33 0.149
    10  N   3.419    C   26 1.099    C   42 0.997    C    6 0.995    O   34 0.149
    11  N   3.419    C   27 1.099    C   43 0.997    C    7 0.995    O   35 0.149
    12  N   3.419    C   28 1.099    C   44 0.997    C    8 0.995    O   36 0.149
    13  N   3.419    C   29 1.099    C   45 0.997    C    5 0.995    O   37 0.149
    14  N   3.419    C   30 1.099    C   46 0.997    C    6 0.995    O   38 0.149
    15  N   3.419    C   31 1.099    C   47 0.997    C    7 0.995    O   39 0.149
    16  N   3.419    C   32 1.099    C   48 0.997    C    8 0.995    O   40 0.149
    17  N   3.419    C   25 1.099    C   42 0.997    C    1 0.995    O   33 0.149
    18  N   3.419    C   26 1.099    C   43 0.997    C    2 0.995    O   34 0.149
    19  N   3.419    C   27 1.099    C   48 0.997    C    3 0.995    O   35 0.149
    20  N   3.419    C   28 1.099    C   45 0.997    C    4 0.995    O   36 0.149
    21  N   3.419    C   29 1.099    C   46 0.997    C    1 0.995    O   37 0.149
    22  N   3.419    C   30 1.099    C   47 0.997    C    2 0.995    O   38 0.149
    23  N   3.419    C   31 1.099    C   44 0.997    C    3 0.995    O   39 0.149
    24  N   3.419    C   32 1.099    C   41 0.997    C    4 0.995    O   40 0.149
    25  C   3.966    O   33 1.702    N    9 1.099    N   17 1.099
    26  C   3.966    O   34 1.702    N   10 1.099    N   18 1.099
    27  C   3.966    O   35 1.702    N   11 1.099    N   19 1.099
    28  C   3.966    O   36 1.702    N   12 1.099    N   20 1.099
    29  C   3.966    O   37 1.702    N   13 1.099    N   21 1.099
    30  C   3.966    O   38 1.702    N   14 1.099    N   22 1.099
    31  C   3.966    O   39 1.702    N   15 1.099    N   23 1.099
    32  C   3.966    O   40 1.702    N   16 1.099    N   24 1.099
    33  O   2.061    C   25 1.702    N    9 0.149    N   17 0.149
    34  O   2.061    C   26 1.702    N   10 0.149    N   18 0.149
    35  O   2.061    C   27 1.702    N   11 0.149    N   19 0.149
    36  O   2.061    C   28 1.702    N   12 0.149    N   20 0.149
    37  O   2.061    C   29 1.702    N   13 0.149    N   21 0.149
    38  O   2.061    C   30 1.702    N   14 0.149    N   22 0.149
    39  O   2.061    C   31 1.702    N   15 0.149    N   23 0.149
    40  O   2.061    C   32 1.702    N   16 0.149    N   24 0.149
    41  C   3.969    N    9 0.997    N   24 0.997    H   49 0.964    H   57 0.957
    42  C   3.969    N   10 0.997    N   17 0.997    H   50 0.964    H   58 0.957
    43  C   3.969    N   11 0.997    N   18 0.997    H   51 0.964    H   59 0.957
    44  C   3.969    N   12 0.997    N   23 0.997    H   52 0.964    H   60 0.957
    45  C   3.969    N   13 0.997    N   20 0.997    H   53 0.964    H   61 0.957
    46  C   3.969    N   14 0.997    N   21 0.997    H   54 0.964    H   62 0.957
    47  C   3.969    N   15 0.997    N   22 0.997    H   55 0.964    H   63 0.957
    48  C   3.969    N   16 0.997    N   19 0.997    H   56 0.964    H   64 0.957
    49  H   0.998    C   41 0.964
    50  H   0.998    C   42 0.964
    51  H   0.998    C   43 0.964
    52  H   0.998    C   44 0.964
    53  H   0.998    C   45 0.964
    54  H   0.998    C   46 0.964
    55  H   0.998    C   47 0.964
    56  H   0.998    C   48 0.964
    57  H   0.994    C   41 0.957
    58  H   0.994    C   42 0.957
    59  H   0.994    C   43 0.957
    60  H   0.994    C   44 0.957
    61  H   0.994    C   45 0.957
    62  H   0.994    C   46 0.957
    63  H   0.994    C   47 0.957
    64  H   0.994    C   48 0.957
    65  H   0.999    C    5 0.948
    66  H   0.999    C    6 0.948
    67  H   0.999    C    7 0.948
    68  H   0.999    C    8 0.948
    69  H   0.999    C    1 0.948
    70  H   0.999    C    2 0.948
    71  H   0.999    C    3 0.948
    72  H   0.999    C    4 0.948
    73  KR  0.079
 density
 
 cube file module (SG, 7/16)
 cube_pthr     :   0.005
 cube_step     :   0.400
 non-zero P (%):  31.472   nmat:    8073
 Grid Boundaries (x y z) :
   11.7843776984390        11.7843776985665        8.95024725629707     
  -11.7843776959218       -11.7843777014738       -8.95024725305401     
 Total # of points                156645
 writing density.cub
 N    (numint) : ******
cpu  time for cube   36.76 s
wall time for cube   34.69 s
 
molecular dipole:
                 x           y           z       tot (Debye)
 q only:       -0.000       0.000       0.000
   full:       -0.000       0.000       0.000       0.000
molecular quadrupole (traceless):
                xx          xy          yy          xz          yz          zz
 q only:       50.901      -0.000      50.901       0.000       0.000    -101.803
  q+dip:       62.833      -0.000      62.833       0.000      -0.000    -125.666
   full:       63.746      -0.000      63.746       0.000      -0.000    -127.492
 SCC converged in                     14  cycles
 
SCC energy    :    -153.5357775
rep           :       1.5004312
ES            :      -0.0054520
AES           :       0.0131359
disp          :      -0.1164408
XB            :       0.0000000
fix           :       0.0000000
total E       :    -152.1517871
atomizationE  :      19.6873182    12353.98
(atE without considerung molecular charge,
 total energy contains solvation terms)
H-L gap (eV)  :          5.2333
 
       ===================================
       |          GMD driver             |
       ===================================
 
 
 MD time /ps        :   50.00
 dt /fs             :    4.00
 SCC accuracy       :    1.00
 temperature /K     :  298.15
 max steps          : 12500
 block length (av.) :   875
 dumpstep(trj) /fs  :   50.00    12
 dumpstep(coords)/fs: 1000.00   250
 minimum runtime(ps):   5.0
 maximum runtime(ps):  50.0
 H atoms mass (amu) :     4
 # deg. of freedom  :   135
 SHAKE on. # bonds  :                    84  all: T
 Berendsen THERMOSTAT on
 EQUILIBRATION mode
         time (ps)    <Epot>      Ekin   <T>   T     Etot
  q data taken from xtbrestart
  CAMM data taken from xtbrestart
      0    0.00      0.00000   0.0380    0.    0.  -152.11381
est. speed in wall clock h for 100 ps :  2.23
    200    0.80   -151.37689   0.0193   82.   90.  -152.11462
    400    1.60   -151.75355   0.0183   86.   86.  -152.11196
    600    2.40   -151.87952   0.0204   87.   95.  -152.11258
    800    3.20   -151.94259   0.0171   87.   80.  -152.11408
block <Epot> / <T> :    -152.13250   88.     drift:  0.99D+02   Tbath : 134.
   1000    4.00   -151.97972   0.0274   91.  128.  -152.09501
   1200    4.80   -152.00354   0.0296   98.  138.  -152.09751
   1400    5.60   -152.02054   0.0300  104.  140.  -152.09303
   1600    6.40   -152.03330   0.0318  107.  149.  -152.08960
block <Epot> / <T> :    -152.12316  132.     drift:  0.99D+02   Tbath : 201.
   1800    7.20   -152.04310   0.0369  111.  172.  -152.07505
   2000    8.00   -152.04978   0.0423  119.  198.  -152.06774
   2200    8.80   -152.05516   0.0441  127.  206.  -152.06955
   2400    9.60   -152.05963   0.0401  133.  187.  -152.06643
   2600   10.40   -152.06343   0.0454  138.  212.  -152.06371
block <Epot> / <T> :    -152.10969  198.     drift:  0.99D+02   Tbath : 298.
   2800   11.20   -152.06573   0.0655  147.  306.  -152.02370
   3000   12.00   -152.06724   0.0549  157.  257.  -152.02423
   3200   12.80   -152.06851   0.0711  166.  332.  -152.02119
   3400   13.60   -152.06965   0.0659  174.  308.  -152.02068
block <Epot> / <T> :    -152.08904  293.     drift:  0.14D-01   Tbath : 298.
   3600   14.40   -152.07067   0.0562  181.  263.  -152.02529
   3800   15.20   -152.07158   0.0717  187.  335.  -152.01741
   4000   16.00   -152.07238   0.0619  192.  290.  -152.02342
   4200   16.80   -152.07310   0.0577  197.  270.  -152.03169
block <Epot> / <T> :    -152.08763  298.     drift:  0.13D-01   Tbath : 298.
   4400   17.60   -152.07375   0.0608  202.  284.  -152.02784
   4600   18.40   -152.07434   0.0628  206.  294.  -152.02325
   4800   19.20   -152.07488   0.0669  210.  313.  -152.02311
   5000   20.00   -152.07540   0.0618  214.  289.  -152.02912
   5200   20.80   -152.07587   0.0596  217.  279.  -152.02637
block <Epot> / <T> :    -152.08765  298.     drift:  0.68D-02   Tbath : 298.
   5400   21.60   -152.07635   0.0679  220.  318.  -152.02407
   5600   22.40   -152.07677   0.0639  223.  299.  -152.03128
   5800   23.20   -152.07717   0.0624  225.  292.  -152.02763
   6000   24.00   -152.07755   0.0627  228.  293.  -152.03191
block <Epot> / <T> :    -152.08838  298.     drift:  0.20D-03   Tbath : 298.
 GOOD AVERAGES REACHED
 average properties 
 Epot               :  -152.102579915264     
 Epot (accurate SCC):  -152.102338186907     
 Ekin               :  4.899553159199606E-002
 Etot               :  -152.053584383672     
 T                  :   229.208102639715     
 normal exit of md()
 
 MD time /ps        :   50.00
 dt /fs             :    4.00
 SCC accuracy       :    1.00
 temperature /K     :  298.15
 max steps          : 50000
 block length (av.) :   875
 dumpstep(trj) /fs  :   50.00    12
 dumpstep(coords)/fs: 1000.00   250
 minimum runtime(ps):  50.0
 maximum runtime(ps): 200.0
 H atoms mass (amu) :     4
 # deg. of freedom  :   135
 SHAKE on. # bonds  :                    84  all: T
 Berendsen THERMOSTAT on
 GMD mode
 RESTART
         time (ps)    <Epot>      Ekin   <T>   T     Etot
  q data taken from xtbrestart
  CAMM data taken from xtbrestart
 reading input structure for Re-R0 averaging
      0    0.00      0.00000   0.0700    0.    0.  -152.02326
est. speed in wall clock h for 100 ps :  2.34
    200    0.80   -151.33171   0.0734  294.  343.  -152.02791
    400    1.60   -151.70911   0.0657  295.  307.  -152.03026
    600    2.40   -151.83540   0.0623  297.  291.  -152.02333
    800    3.20   -151.89855   0.0536  297.  251.  -152.02781
block <Epot> / <T> :    -152.08833  297.     drift:  0.99D+02   Tbath : 298.
   1000    4.00   -151.93635   0.0649  297.  304.  -152.02826
   1200    4.80   -151.96161   0.0724  297.  339.  -152.02338
   1400    5.60   -151.97962   0.0684  297.  320.  -152.01615
   1600    6.40   -151.99307   0.0690  297.  323.  -152.02531
block <Epot> / <T> :    -152.08770  298.     drift:  0.99D+02   Tbath : 298.
   1800    7.20   -152.00355   0.0580  297.  271.  -152.02413
   2000    8.00   -152.01197   0.0650  297.  304.  -152.02032
   2200    8.80   -152.01887   0.0734  298.  343.  -152.02638
   2400    9.60   -152.02461   0.0655  298.  306.  -152.02544
   2600   10.40   -152.02947   0.0686  298.  321.  -152.02728
block <Epot> / <T> :    -152.08776  298.     drift:  0.99D+02   Tbath : 298.
   2800   11.20   -152.03361   0.0607  298.  284.  -152.03063
   3000   12.00   -152.03716   0.0634  297.  296.  -152.03003
   3200   12.80   -152.04030   0.0646  298.  302.  -152.01394
   3400   13.60   -152.04310   0.0564  298.  264.  -152.02081
block <Epot> / <T> :    -152.08748  298.     drift:  0.25D-03   Tbath : 298.
   3600   14.40   -152.04558   0.0728  298.  340.  -152.02197
   3800   15.20   -152.04781   0.0671  298.  314.  -152.02303
   4000   16.00   -152.04981   0.0563  298.  263.  -152.02687
   4200   16.80   -152.05159   0.0584  298.  273.  -152.02495
block <Epot> / <T> :    -152.08768  298.     drift:  0.33D-04   Tbath : 298.
   4400   17.60   -152.05322   0.0584  298.  273.  -152.02608
   4600   18.40   -152.05472   0.0635  298.  297.  -152.01903
   4800   19.20   -152.05609   0.0648  298.  303.  -152.02279
   5000   20.00   -152.05735   0.0673  298.  315.  -152.02311
   5200   20.80   -152.05853   0.0609  298.  285.  -152.02003
block <Epot> / <T> :    -152.08767  298.     drift:  0.79D-05   Tbath : 298.
   5400   21.60   -152.05961   0.0621  298.  291.  -152.02749
   5600   22.40   -152.06063   0.0647  298.  303.  -152.02894
   5800   23.20   -152.06157   0.0697  298.  326.  -152.02190
   6000   24.00   -152.06243   0.0588  298.  275.  -152.03157
block <Epot> / <T> :    -152.08778  298.     drift: -0.90D-04   Tbath : 298.
   6200   24.80   -152.06324   0.0666  298.  312.  -152.02550
   6400   25.60   -152.06401   0.0661  298.  309.  -152.01926
   6600   26.40   -152.06471   0.0551  298.  258.  -152.02727
   6800   27.20   -152.06539   0.0700  298.  328.  -152.02379
   7000   28.00   -152.06602   0.0553  298.  259.  -152.03117
block <Epot> / <T> :    -152.08755  298.     drift:  0.28D-04   Tbath : 298.
   7200   28.80   -152.06662   0.0561  298.  262.  -152.02891
   7400   29.60   -152.06719   0.0704  298.  329.  -152.02294
   7600   30.40   -152.06772   0.0685  298.  321.  -152.01966
   7800   31.20   -152.06822   0.0702  298.  329.  -152.02369
block <Epot> / <T> :    -152.08751  298.     drift:  0.70D-04   Tbath : 298.
   8000   32.00   -152.06869   0.0630  298.  295.  -152.02352
   8200   32.80   -152.06914   0.0642  298.  300.  -152.02065
   8400   33.60   -152.06956   0.0585  298.  274.  -152.02452
   8600   34.40   -152.06997   0.0643  298.  301.  -152.02762
block <Epot> / <T> :    -152.08699  298.     drift:  0.24D-03   Tbath : 298.
   8800   35.20   -152.07036   0.0581  298.  272.  -152.02340
   9000   36.00   -152.07073   0.0633  298.  296.  -152.02033
   9200   36.80   -152.07109   0.0692  298.  324.  -152.01508
   9400   37.60   -152.07142   0.0683  298.  319.  -152.02487
   9600   38.40   -152.07174   0.0612  298.  286.  -152.02702
block <Epot> / <T> :    -152.08695  298.     drift:  0.23D-03   Tbath : 298.
   9800   39.20   -152.07205   0.0702  298.  328.  -152.01609
  10000   40.00   -152.07236   0.0648  298.  303.  -152.02195
  10200   40.80   -152.07265   0.0716  298.  335.  -152.02831
  10400   41.60   -152.07293   0.0676  298.  316.  -152.01222
block <Epot> / <T> :    -152.08714  298.     drift:  0.11D-03   Tbath : 298.
  10600   42.40   -152.07319   0.0647  298.  303.  -152.02187
  10800   43.20   -152.07345   0.0641  298.  300.  -152.02465
  11000   44.00   -152.07369   0.0612  298.  286.  -152.02159
  11200   44.80   -152.07392   0.0606  298.  284.  -152.02420
block <Epot> / <T> :    -152.08679  298.     drift:  0.41D-04   Tbath : 298.
  11400   45.60   -152.07414   0.0574  298.  269.  -152.03219
  11600   46.40   -152.07436   0.0638  298.  298.  -152.01785
  11800   47.20   -152.07456   0.0658  298.  308.  -152.01684
  12000   48.00   -152.07476   0.0626  298.  293.  -152.02680
  12200   48.80   -152.07495   0.0661  298.  309.  -152.02977
block <Epot> / <T> :    -152.08647  298.     drift:  0.18D-03   Tbath : 298.
  12400   49.60   -152.07514   0.0666  298.  312.  -152.01809
 GOOD AVERAGES REACHED
 average properties 
 Epot               :  -152.087396731459     
 Epot (accurate SCC):  -152.087406529172     
 Ekin               :  6.368606710331114E-002
 Etot               :  -152.023710664356     
 T                  :   297.932528355712     
 corrections to Re Z-matrix:
   1  C     0.000000      0.0000      0.0000     0    0    0
   2  C    -0.015288      0.0000      0.0000     1    0    0
   3  C    -0.014142      0.0816      0.0000     2    1    0
   4  C    -0.014284     -0.1051      0.0053     1    2    3
   5  C     0.000000     -0.2067      0.0093     1    2    3
   6  C     0.000000      0.0625     -0.0019     2    1    3
   7  C     0.000000     -0.0217      0.0101     3    2    1
   8  C     0.000000      0.0604     -0.0161     4    1    2
   9  N     0.000000     -0.1082      0.0400     5    1    2
  10  N     0.000000     -0.1023      0.0116     6    2    1
  11  N     0.000000     -0.1080      0.0265     7    3    2
  12  N     0.000000     -0.1002     -0.0666     8    4    1
  13  N     0.000000     -0.1068     -0.0850     5    1    2
  14  N     0.000000     -0.1060     -0.0944     6    2    1
  15  N     0.000000     -0.0988     -0.0883     7    3    2
  16  N     0.000000     -0.1025      0.0556     8    4    1
  17  N     0.000000      0.1656      0.0577     1    2    3
  18  N     0.000000     -0.0169     -0.1037     2    1    3
  19  N     0.000000      0.0594     -0.0959     3    2    1
  20  N     0.000000      0.1313      0.1609     4    1    2
  21  N     0.000000      0.1051      0.0026     1    2    3
  22  N     0.000000     -0.0339      0.0457     2    1    3
  23  N     0.000000      0.0211      0.0393     3    2    1
  24  N     0.000000      0.1618     -0.1476     4    1    2
  25  C     0.000000     -0.5572      1.5986     9    5    1
  26  C     0.000000     -0.5674      1.6244    10    6    2
  27  C     0.000000     -0.5579      1.7363    11    7    3
  28  C     0.000000     -0.5564     -0.1547    12    8    4
  29  C     0.000000     -0.5641     -0.1077    13    5    1
  30  C     0.000000     -0.5544     -0.1293    14    6    2
  31  C     0.000000     -0.5669     -0.0501    15    7    3
  32  C     0.000000     -0.5372      1.3672    16    8    4
  33  O     0.000000     -0.2058     -0.4009    25    9    5
  34  O     0.000000     -0.2368     -0.3600    26   10    6
  35  O     0.000000     -0.2054     -0.4316    27   11    7
  36  O     0.000000     -0.2136      0.3732    28   12    8
  37  O     0.000000     -0.2065      0.3156    29   13    5
  38  O     0.000000     -0.2528      0.3434    30   14    6
  39  O     0.000000     -0.1840      0.2362    31   15    7
  40  O     0.000000     -0.2261     -0.3037    32   16    8
  41  C     0.000000     -0.5835      0.2025     9    5    1
  42  C     0.000000     -0.6467      0.2211    10    6    2
  43  C     0.000000     -0.5643      0.1251    11    7    3
  44  C     0.000000     -0.6286     -0.3352    12    8    4
  45  C     0.000000     -0.5935     -0.2550    13    5    1
  46  C     0.000000     -0.6375     -0.3414    14    6    2
  47  C     0.000000     -0.5847     -0.2595    15    7    3
  48  C     0.000000     -0.5962      0.2620    16    8    4
  49  H     0.000000     -0.1973     -0.0889    41    9    5
  50  H     0.000000     -0.1840      0.0527    42   10    6
  51  H     0.000000     -0.1707     -0.0653    43   11    7
  52  H     0.000000     -0.1796      0.0906    44   12    8
  53  H     0.000000     -0.1838      0.1674    45   13    5
  54  H     0.000000     -0.1859      0.1309    46   14    6
  55  H     0.000000     -0.1967      0.1786    47   15    7
  56  H     0.000000     -0.1807     -0.0414    48   16    8
  57  H     0.000000      0.1247      0.2796    41    9    5
  58  H     0.000000      0.1571      0.4173    42   10    6
  59  H     0.000000      0.1288      0.3187    43   11    7
  60  H     0.000000      0.1647     -0.3178    44   12    8
  61  H     0.000000      0.1275     -0.2034    45   13    5
  62  H     0.000000      0.1472     -0.2415    46   14    6
  63  H     0.000000      0.1312     -0.2127    47   15    7
  64  H     0.000000      0.1562      0.3398    48   16    8
  65  H     0.000000     -0.1020     -0.0278     5    1    2
  66  H     0.000000     -0.0892     -0.0353     6    2    1
  67  H     0.000000     -0.0897     -0.0237     7    3    2
  68  H     0.000000     -0.0622      0.0031     8    4    1
  69  H     0.000000      0.0466      0.0554     1    2    3
  70  H     0.000000     -0.3590     -0.0553     2    1    3
  71  H     0.000000     -0.4336     -0.0372     3    2    1
  72  H     0.000000     -0.2497      0.0198     4    1    2
  73  KR   -0.000052     -0.0380      0.0648    32   16    8
Be      (a,b,c, in MHz) :     94.633     94.633     83.892
Be - B0 (a,b,c, in MHz) :     -0.164      0.060     -0.025
 corrected structure on <xtb_mdav.coord>
 normal exit of md()
 
speedup 11.68
cpu  time for all   20 h  7 m  0.2 s
wall time for all    1 h 43 m 20.2 s
