 
        ______________________________________
       |                                      |
       |           ==================         |
       |                 x T B                |
       |           ==================         |
       |               S. Grimme              |
       |        Universitaet Bonn, MCTC       |
       |         2015-18, Version 5.0         |
       |      Sat Jan 20 11:00:33 CET 2018    |
       |______________________________________|
 
        This code comes without any warranty
        for non-commercial, academia use only.
        Cite GFN-xTB work as:
        S. Grimme, C. Bannwarth, P. Shushkov
        JCTC, 13 (2017) 1989-2009
        for GFN2:
        C. Bannwarth, S. Ehlert, S. Grimme
        to be published.
        sTDA-xTB:
        S. Grimme  &  C. Bannwarth, JCP 145 (2016) 054103
        in the mass-spec context additionally:
        V. Asgeirsson, C.Bauer, S. Grimme, Chem. Sci. 8 (2017) 4879
 
        with help from
        P. Shushkov, G. Brandenburg, S. Dohm, J. Pisarek,
        F. März, M. Checinski, S. Ehrlich, S. Spicher, 
        P. Pracht, E. Caldeweyher, S. Ehlert, and C. Bannwarth.
 
        usage        :
        xtb <coord_file> [options]
        where <coord_file> is a valid file of TM)
        (*coord, Bohr) or xmol (*xyz, Angstroem)
        format.

        options:
        -chrg <int>   : molecular charge
        -uhf  <int>   : # of unpaired electrons(=2*S)
        -nox          : skip second, extended part in sTDA-xTB
        -pop          : do population analysis
                      : (default for -nox)
        -mowr <real>  : cut MO write above (def.3 Eh)
        -molden       : write formatted molden file
        -parx <file>  : read parameters for sTDA-xTB
                        calc (def:~/.param_stda2.xtb)
        -parv <file>  : read parameters for vTB part in
                        sTDA-xTB (def: ~/.param_stda1.xtb)
        -xtemp <real> : el. temp for xTB (def. 0 K)
        -etemp <real> : el. temp for GFN (def. 300 K)
        -fod          : do a xTB calc. of the FOD
                        and write molden.input file 
                        with appropriate occupations
                        for plotting. Def. T=12500 K
 
        -gfn          : use GFN-xTB
        -grad         : GFN-xTB gradient
        -acc <real>   : GFN-xTB accuracy (def. 1.0)
        -opt [level]  : optimize at GFN-xTB
                      : level=crude,vloose,loose,
                      :       tight,vtight
        -hess         : compute Hessian at GFN-xTB
        -ohess        : optimize and compute Hessian
        -omd          : optimize and do MD
        -siman        : conformational search
        -screen       : opt. loop over ensemble
        -gmd          : annealed MD for GMD procedure
        -modef        : vib mode following
        -gbsa [string1] [string2]
                        use GBSA implicit solvent
                        for solvent [string1] and
                        solvation state [string2]=
                        reference, bar1M (default=1M)
        additional GFN/opt/MD/siman options read from
        $XTBHOME/.xtbrc or $set in coordinate file
 
       spin and charge state information can be on:
       <.CHRG> (charge) and <.UHF> (=nalpha-nbeta)
       -uhf and -chrg override the file info.
       useful machine settings:
       setenv MKL_NUM_THREADS <NCORE_ON_YOUR_MACHINE>
       setenv OMP_STACKSIZE 500m
       limit stacksize unlimited
 
       total energies in Eh, gaps/HL energies in eV
       please read REVISION and HOWTO files carefully
 =============================
  # OMP threads =                     1
 =============================
 
 xtbhome directory:/Applications/xtb/
 
 argument                      1 :-opt
 argument                      2 :tight
 
 number of atoms            :    73
 number of electrons        :   256
 charge                     :  0
 spin                       : 0.0
 first test random number   :  0.6505
 
 
KAB for pair M(3d)-M(3d) :  1.1000
KAB for pair M(4d)-M(4d) :  1.2000
KAB for pair M(5d)-M(5d) :  1.2000
 -----------------------------------------
  G F N (Geometry, Frequency, Non-covalent)
        parametrization, version                     2
 /Applications/xtb/.param_gfn2.xtb
 -----------------------------------------
      method parameters     
 k(s)        :  1.8500
 k(p)        :  2.2500
 k(d)        :  2.0000
 k(f)        :  0.0000
 alphaj      :  1.0000
 kEN (H0ij)  : -2.3620
 D3 a1       :  0.6900
 D3 a2       :  4.0530
 D3 s8       :  2.0000
 D3atm       :  1.0000
 AESdamp     :  5.5000
 AESrad      :  1.9230
 expscalexp  : -0.2500
 
     -------------------------
     ! NO SOLVENT MODEL USED !
     -------------------------
 
 doing EN charges ...
 sum q :  0.1332268D-14
 point charge moment (au)
     X       Y       Z   
   0.0000   0.0000   0.0000  total (Debye):    0.000
 
            Z      q(EN)   CN      Cart. coordinates
     1  C   4.0    0.21    4.30    -6.06375    -3.08813     0.00000
     2  C   4.0    0.21    4.30     3.08813    -6.06375     0.00000
     3  C   4.0    0.21    4.30     6.06375     3.08813     0.00000
     4  C   4.0    0.21    4.30    -3.08813     6.06375     0.00000
     5  C   4.0    0.21    4.30    -6.80173    -0.19279     0.00000
     6  C   4.0    0.21    4.30     0.19279    -6.80173     0.00000
     7  C   4.0    0.21    4.30     6.80173     0.19279     0.00000
     8  C   4.0    0.21    4.30    -0.19279     6.80173     0.00000
     9  N   5.0   -0.19    3.23    -5.75114     0.72560    -2.35038
    10  N   5.0   -0.19    3.23    -0.72560    -5.75114    -2.35038
    11  N   5.0   -0.19    3.23     5.75114    -0.72560    -2.35038
    12  N   5.0   -0.19    3.23     0.72560     5.75114     2.35038
    13  N   5.0   -0.19    3.23    -5.75114     0.72560     2.35038
    14  N   5.0   -0.19    3.23    -0.72560    -5.75114     2.35038
    15  N   5.0   -0.19    3.23     5.75114    -0.72560     2.35038
    16  N   5.0   -0.19    3.23     0.72560     5.75114    -2.35038
    17  N   5.0   -0.19    3.23    -4.70247    -3.39194    -2.35116
    18  N   5.0   -0.19    3.23     3.39194    -4.70247    -2.35116
    19  N   5.0   -0.19    3.23     4.70247     3.39194    -2.35116
    20  N   5.0   -0.19    3.23    -3.39194     4.70247     2.35116
    21  N   5.0   -0.19    3.23    -4.70247    -3.39194     2.35116
    22  N   5.0   -0.19    3.23     3.39194    -4.70247     2.35116
    23  N   5.0   -0.19    3.23     4.70247     3.39194     2.35116
    24  N   5.0   -0.19    3.23    -3.39194     4.70247    -2.35116
    25  C   4.0    0.44    3.28    -4.72258    -1.20445    -3.82862
    26  C   4.0    0.44    3.28     1.20445    -4.72258    -3.82862
    27  C   4.0    0.44    3.28     4.72258     1.20445    -3.82862
    28  C   4.0    0.44    3.28    -1.20445     4.72258     3.82862
    29  C   4.0    0.44    3.28    -4.72258    -1.20445     3.82862
    30  C   4.0    0.44    3.28     1.20445    -4.72258     3.82862
    31  C   4.0    0.44    3.28     4.72258     1.20445     3.82862
    32  C   4.0    0.44    3.28    -1.20445     4.72258    -3.82862
    33  O   6.0   -0.34    1.06    -4.03182    -1.02746    -5.99706
    34  O   6.0   -0.34    1.06     1.02746    -4.03182    -5.99706
    35  O   6.0   -0.34    1.06     4.03182     1.02746    -5.99706
    36  O   6.0   -0.34    1.06    -1.02746     4.03182     5.99706
    37  O   6.0   -0.34    1.06    -4.03182    -1.02746     5.99706
    38  O   6.0   -0.34    1.06     1.02746    -4.03182     5.99706
    39  O   6.0   -0.34    1.06     4.03182     1.02746     5.99706
    40  O   6.0   -0.34    1.06    -1.02746     4.03182    -5.99706
    41  C   4.0    0.25    4.14    -5.63085     3.34219    -3.16132
    42  C   4.0    0.25    4.14    -3.34219    -5.63085    -3.16132
    43  C   4.0    0.25    4.14     5.63085    -3.34219    -3.16132
    44  C   4.0    0.25    4.14     3.34219     5.63085     3.16132
    45  C   4.0    0.25    4.14    -5.63085     3.34219     3.16132
    46  C   4.0    0.25    4.14    -3.34219    -5.63085     3.16132
    47  C   4.0    0.25    4.14     5.63085    -3.34219     3.16132
    48  C   4.0    0.25    4.14     3.34219     5.63085    -3.16132
    49  H   1.0   -0.05    1.00    -7.31664     4.34278    -2.49244
    50  H   1.0   -0.05    1.00    -4.34278    -7.31664    -2.49244
    51  H   1.0   -0.05    1.00     7.31664    -4.34278    -2.49244
    52  H   1.0   -0.05    1.00     4.34278     7.31664     2.49244
    53  H   1.0   -0.05    1.00    -7.31664     4.34278     2.49244
    54  H   1.0   -0.05    1.00    -4.34278    -7.31664     2.49244
    55  H   1.0   -0.05    1.00     7.31664    -4.34278     2.49244
    56  H   1.0   -0.05    1.00     4.34278     7.31664    -2.49244
    57  H   1.0   -0.05    1.01    -5.59790     3.32116    -5.22698
    58  H   1.0   -0.05    1.01    -3.32116    -5.59790    -5.22698
    59  H   1.0   -0.05    1.01     5.59790    -3.32116    -5.22698
    60  H   1.0   -0.05    1.01     3.32116     5.59790     5.22698
    61  H   1.0   -0.05    1.01    -5.59790     3.32116     5.22698
    62  H   1.0   -0.05    1.01    -3.32116    -5.59790     5.22698
    63  H   1.0   -0.05    1.01     5.59790    -3.32116     5.22698
    64  H   1.0   -0.05    1.01     3.32116     5.59790    -5.22698
    65  H   1.0   -0.05    1.00    -8.86195     0.09165     0.00000
    66  H   1.0   -0.05    1.00    -0.09165    -8.86195     0.00000
    67  H   1.0   -0.05    1.00     8.86195    -0.09165     0.00000
    68  H   1.0   -0.05    1.00     0.09165     8.86195     0.00000
    69  H   1.0   -0.05    1.00    -7.73673    -4.32362     0.00000
    70  H   1.0   -0.05    1.00     4.32362    -7.73673     0.00000
    71  H   1.0   -0.05    1.00     7.73673     4.32362     0.00000
    72  H   1.0   -0.05    1.00    -4.32362     7.73673     0.00000
    73  KR  8.0   -0.13    0.69     0.00000     0.00000     0.00000
 
  Z AO/shell   Hii/eV     exponent
  1     Sat Jan 20 17:55:17 CET 2018    EN: 2.200 GAM: 0.531  GM3:-0.4370
     1s    -10.248275    1.266496
  6     Sat Jan 20 17:55:17 CET 2018    EN: 2.550 GAM: 0.417  GM3:-0.0654
     2s    -15.292509    2.030071
     2p    -10.408465    1.801676
  7     Sat Jan 20 17:55:17 CET 2018    EN: 3.040 GAM: 0.444  GM3:-0.1301
     2s    -16.687725    2.226550
     2p    -13.175143    1.981921
  8     Sat Jan 20 17:55:17 CET 2018    EN: 3.440 GAM: 0.468  GM3: 0.0937
     2s    -20.924998    2.442614
     2p    -15.243501    2.233841
 36     Sun Jan 21 08:50:06 CET 2018    EN: 3.000 GAM: 0.916  GM3:-0.0061
     4s    -28.741095    2.717432
     4p    -13.074912    2.238847
     4d     -1.204386    2.130370
 no old-style atom pair restraing (fixing) potential
 
 molecular fragmentation (1/2 indicates fragments):
1111111111111111111111111111111111111111111111111111111111111111111111112
# atoms in fragment 1/2:    72     1
 fragment masses (1/2) :      664.56       83.80
CMA distance (Bohr)    :   0.000
constraining FC (au)   :  0.0500
 
             =======================================
             |                                     |
             |        S C C  calculation           |
             |                                     |
             =======================================
 #proc     :                      1
 Ncao      :                    226
 Nao       :                    225
 Nel       :                    256
 T(el)     :   300.0
 intcut    :    25.0
 scfconv   :  0.100E-05
   qconv   :  0.200E-04
 intneglect:  0.100E-07
 broydamp  :      0.400
 Nshell    :                    123
  q data taken from xtbrestart
  CAMM data taken from xtbrestart
 iter      E             dE          RMSdq      gap      omega  full diag
   1   -153.4222518 -0.153422E+03  0.208E-01    5.06       0.0  T
   2   -153.4225305 -0.278680E-03  0.121E-01    5.08       1.0  T
   3   -153.4225099  0.205819E-04  0.535E-02    5.06       1.0  T
   4   -153.4225950 -0.850424E-04  0.949E-03    5.08       1.2  T
   5   -153.4225961 -0.112716E-05  0.511E-03    5.08       2.3  T
   6   -153.4225963 -0.239994E-06  0.226E-03    5.07       5.2  T
   7   -153.4225965 -0.164320E-06  0.866E-04    5.07      13.5  T
   8   -153.4225965 -0.130660E-07  0.218E-04    5.07      53.7  T
   9   -153.4225965 -0.360671E-09  0.890E-05    5.07     131.5  T
  10   -153.4225965 -0.111697E-09  0.234E-05    5.07     499.5  T
speedup  6.94
cpu  time for SCC    2.91 s
wall time for SCC    0.42 s

          eigenvalues
 #    :         116        117        118        119        120        121        122        123
 occ. :        2.000      2.000      2.000      2.000      2.000      2.000      2.000      2.000
 eps  :       -10.445    -10.430    -10.430    -10.398    -10.387    -10.218    -10.205    -10.205
 #    :         124        125        126        127        128        129        130        131
 occ. :        2.000      2.000      2.000      2.000      2.000      0.000      0.000      0.000
 eps  :       -10.140    -10.124    -10.124    -10.095    -10.066     -4.991     -4.874     -4.743
 #    :         132        133        134        135        136        137        138        139
 occ. :        0.000      0.000      0.000      0.000      0.000      0.000      0.000      0.000
 eps  :        -4.743     -4.718     -4.718     -4.598     -4.498     -0.682     -0.661     -0.614
 
 
 Mulliken/CM5 charges        n(s)   n(p)   n(d)
     1 C   0.06656  0.14313   1.083  2.850  0.000
     2 C   0.06656  0.14313   1.083  2.850  0.000
     3 C   0.06656  0.14313   1.083  2.850  0.000
     4 C   0.06656  0.14313   1.083  2.850  0.000
     5 C   0.06656  0.14317   1.083  2.851  0.000
     6 C   0.06656  0.14317   1.083  2.851  0.000
     7 C   0.06656  0.14317   1.083  2.851  0.000
     8 C   0.06656  0.14317   1.083  2.851  0.000
     9 N  -0.03855 -0.27231   1.134  3.904  0.000
    10 N  -0.03855 -0.27231   1.134  3.904  0.000
    11 N  -0.03855 -0.27231   1.134  3.904  0.000
    12 N  -0.03855 -0.27231   1.134  3.904  0.000
    13 N  -0.03855 -0.27231   1.134  3.904  0.000
    14 N  -0.03855 -0.27231   1.134  3.904  0.000
    15 N  -0.03855 -0.27231   1.134  3.904  0.000
    16 N  -0.03855 -0.27231   1.134  3.904  0.000
    17 N  -0.03855 -0.27223   1.135  3.904  0.000
    18 N  -0.03855 -0.27223   1.135  3.904  0.000
    19 N  -0.03855 -0.27223   1.135  3.904  0.000
    20 N  -0.03855 -0.27223   1.135  3.904  0.000
    21 N  -0.03855 -0.27223   1.135  3.904  0.000
    22 N  -0.03855 -0.27223   1.135  3.904  0.000
    23 N  -0.03855 -0.27223   1.135  3.904  0.000
    24 N  -0.03855 -0.27223   1.135  3.904  0.000
    25 C   0.23030  0.39585   1.062  2.708  0.000
    26 C   0.23030  0.39585   1.062  2.708  0.000
    27 C   0.23030  0.39585   1.062  2.708  0.000
    28 C   0.23030  0.39585   1.062  2.708  0.000
    29 C   0.23030  0.39585   1.062  2.708  0.000
    30 C   0.23030  0.39585   1.062  2.708  0.000
    31 C   0.23030  0.39585   1.062  2.708  0.000
    32 C   0.23030  0.39585   1.062  2.708  0.000
    33 O  -0.39250 -0.43273   1.733  4.660  0.000
    34 O  -0.39250 -0.43273   1.733  4.660  0.000
    35 O  -0.39250 -0.43273   1.733  4.660  0.000
    36 O  -0.39250 -0.43273   1.733  4.660  0.000
    37 O  -0.39250 -0.43273   1.733  4.660  0.000
    38 O  -0.39250 -0.43273   1.733  4.660  0.000
    39 O  -0.39250 -0.43273   1.733  4.660  0.000
    40 O  -0.39250 -0.43273   1.733  4.660  0.000
    41 C   0.03354  0.05472   1.073  2.893  0.000
    42 C   0.03354  0.05472   1.073  2.893  0.000
    43 C   0.03354  0.05472   1.073  2.893  0.000
    44 C   0.03354  0.05472   1.073  2.893  0.000
    45 C   0.03354  0.05472   1.073  2.893  0.000
    46 C   0.03354  0.05472   1.073  2.893  0.000
    47 C   0.03354  0.05472   1.073  2.893  0.000
    48 C   0.03354  0.05472   1.073  2.893  0.000
    49 H   0.03721  0.11382   0.963  0.000  0.000
    50 H   0.03721  0.11382   0.963  0.000  0.000
    51 H   0.03721  0.11382   0.963  0.000  0.000
    52 H   0.03721  0.11382   0.963  0.000  0.000
    53 H   0.03721  0.11382   0.963  0.000  0.000
    54 H   0.03721  0.11382   0.963  0.000  0.000
    55 H   0.03721  0.11382   0.963  0.000  0.000
    56 H   0.03721  0.11382   0.963  0.000  0.000
    57 H   0.07483  0.16128   0.925  0.000  0.000
    58 H   0.07483  0.16128   0.925  0.000  0.000
    59 H   0.07483  0.16128   0.925  0.000  0.000
    60 H   0.07483  0.16128   0.925  0.000  0.000
    61 H   0.07483  0.16128   0.925  0.000  0.000
    62 H   0.07483  0.16128   0.925  0.000  0.000
    63 H   0.07483  0.16128   0.925  0.000  0.000
    64 H   0.07483  0.16128   0.925  0.000  0.000
    65 H   0.02948  0.10823   0.971  0.000  0.000
    66 H   0.02948  0.10823   0.971  0.000  0.000
    67 H   0.02948  0.10823   0.971  0.000  0.000
    68 H   0.02948  0.10823   0.971  0.000  0.000
    69 H   0.02954  0.10829   0.970  0.000  0.000
    70 H   0.02954  0.10829   0.970  0.000  0.000
    71 H   0.02954  0.10829   0.970  0.000  0.000
    72 H   0.02954  0.10829   0.970  0.000  0.000
    73 KR -0.01877  0.00154   2.000  5.993  0.025
 
 Wiberg/Mayer (AO) data. WBOs > 0.1 written file <wbo>
 largest (>0.05) Wiberg bond orders for each atom
           total WBO             WBO to atom ...
     1  C   3.976    N   17 0.996    N   21 0.996    C    5 0.951    H   69 0.950
     2  C   3.976    N   18 0.996    N   22 0.996    C    6 0.951    H   70 0.950
     3  C   3.976    N   23 0.996    N   19 0.996    C    7 0.951    H   71 0.950
     4  C   3.976    N   20 0.996    N   24 0.996    C    8 0.951    H   72 0.950
     5  C   3.976    N   13 0.996    N    9 0.996    C    1 0.951    H   65 0.950
     6  C   3.976    N   10 0.996    N   14 0.996    C    2 0.951    H   66 0.950
     7  C   3.976    N   11 0.996    N   15 0.996    C    3 0.951    H   67 0.950
     8  C   3.976    N   12 0.996    N   16 0.996    C    4 0.951    H   68 0.950
     9  N   3.414    C   25 1.094    C    5 0.996    C   41 0.995    O   33 0.150
    10  N   3.414    C   26 1.094    C    6 0.996    C   42 0.995    O   34 0.150
    11  N   3.414    C   27 1.094    C    7 0.996    C   43 0.995    O   35 0.150
    12  N   3.414    C   28 1.094    C    8 0.996    C   44 0.995    O   36 0.150
    13  N   3.414    C   29 1.094    C    5 0.996    C   45 0.995    O   37 0.150
    14  N   3.414    C   30 1.094    C    6 0.996    C   46 0.995    O   38 0.150
    15  N   3.414    C   31 1.094    C    7 0.996    C   47 0.995    O   39 0.150
    16  N   3.414    C   32 1.094    C    8 0.996    C   48 0.995    O   40 0.150
    17  N   3.414    C   25 1.094    C    1 0.996    C   42 0.995    O   33 0.150
    18  N   3.414    C   26 1.094    C    2 0.996    C   43 0.995    O   34 0.150
    19  N   3.414    C   27 1.094    C    3 0.996    C   48 0.995    O   35 0.150
    20  N   3.414    C   28 1.094    C    4 0.996    C   45 0.995    O   36 0.150
    21  N   3.414    C   29 1.094    C    1 0.996    C   46 0.995    O   37 0.150
    22  N   3.414    C   30 1.094    C    2 0.996    C   47 0.995    O   38 0.150
    23  N   3.414    C   31 1.094    C    3 0.996    C   44 0.995    O   39 0.150
    24  N   3.414    C   32 1.094    C    4 0.996    C   41 0.995    O   40 0.150
    25  C   3.963    O   33 1.709    N   17 1.094    N    9 1.094
    26  C   3.963    O   34 1.709    N   18 1.094    N   10 1.094
    27  C   3.963    O   35 1.709    N   19 1.094    N   11 1.094
    28  C   3.963    O   36 1.709    N   20 1.094    N   12 1.094
    29  C   3.963    O   37 1.709    N   21 1.094    N   13 1.094
    30  C   3.963    O   38 1.709    N   22 1.094    N   14 1.094
    31  C   3.963    O   39 1.709    N   23 1.094    N   15 1.094
    32  C   3.963    O   40 1.709    N   24 1.094    N   16 1.094
    33  O   2.067    C   25 1.709    N    9 0.150    N   17 0.150
    34  O   2.067    C   26 1.709    N   10 0.150    N   18 0.150
    35  O   2.067    C   27 1.709    N   11 0.150    N   19 0.150
    36  O   2.067    C   28 1.709    N   12 0.150    N   20 0.150
    37  O   2.067    C   29 1.709    N   13 0.150    N   21 0.150
    38  O   2.067    C   30 1.709    N   14 0.150    N   22 0.150
    39  O   2.067    C   31 1.709    N   15 0.150    N   23 0.150
    40  O   2.067    C   32 1.709    N   16 0.150    N   24 0.150
    41  C   3.968    N    9 0.995    N   24 0.995    H   49 0.965    H   57 0.959
    42  C   3.968    N   10 0.995    N   17 0.995    H   50 0.965    H   58 0.959
    43  C   3.968    N   11 0.995    N   18 0.995    H   51 0.965    H   59 0.959
    44  C   3.968    N   12 0.995    N   23 0.995    H   52 0.965    H   60 0.959
    45  C   3.968    N   13 0.995    N   20 0.995    H   53 0.965    H   61 0.959
    46  C   3.968    N   14 0.995    N   21 0.995    H   54 0.965    H   62 0.959
    47  C   3.968    N   15 0.995    N   22 0.995    H   55 0.965    H   63 0.959
    48  C   3.968    N   16 0.995    N   19 0.995    H   56 0.965    H   64 0.959
    49  H   0.998    C   41 0.965
    50  H   0.998    C   42 0.965
    51  H   0.998    C   43 0.965
    52  H   0.998    C   44 0.965
    53  H   0.998    C   45 0.965
    54  H   0.998    C   46 0.965
    55  H   0.998    C   47 0.965
    56  H   0.998    C   48 0.965
    57  H   0.994    C   41 0.959
    58  H   0.994    C   42 0.959
    59  H   0.994    C   43 0.959
    60  H   0.994    C   44 0.959
    61  H   0.994    C   45 0.959
    62  H   0.994    C   46 0.959
    63  H   0.994    C   47 0.959
    64  H   0.994    C   48 0.959
    65  H   0.999    C    5 0.950
    66  H   0.999    C    6 0.950
    67  H   0.999    C    7 0.950
    68  H   0.999    C    8 0.950
    69  H   0.999    C    1 0.950
    70  H   0.999    C    2 0.950
    71  H   0.999    C    3 0.950
    72  H   0.999    C    4 0.950
    73  KR  0.064
 density
 
 cube file module (SG, 7/16)
 cube_pthr     :   0.005
 cube_step     :   0.400
 non-zero P (%):  31.129   nmat:    7985
 Grid Boundaries (x y z) :
   11.8619454282673        11.8619454282673        8.99706419735421     
  -11.8619454282673       -11.8619454282673       -8.99706419735421     
 Total # of points                162000
 writing density.cub
 N    (numint) : ******
cpu  time for cube   39.62 s
wall time for cube   37.66 s
 
molecular dipole:
                 x           y           z       tot (Debye)
 q only:       -0.000       0.000      -0.000
   full:        0.000       0.000      -0.000       0.000
molecular quadrupole (traceless):
                xx          xy          yy          xz          yz          zz
 q only:       51.795      -0.000      51.795      -0.000       0.000    -103.589
  q+dip:       62.650      -0.000      62.650      -0.000       0.000    -125.300
   full:       63.605      -0.000      63.605      -0.000       0.000    -127.209
 SCC converged in                     10  cycles
 
SCC energy    :    -153.4225965
rep           :       1.4039578
ES            :       0.0021959
AES           :       0.0164122
disp          :      -0.1140247
XB            :       0.0000000
fix           :       0.0000000
total E       :    -152.1326634
atomizationE  :      19.6681945    12341.98
(atE without considerung molecular charge,
 total energy contains solvation terms)
H-L gap (eV)  :          5.0747
 
             =======================================
             |                                     |
             |    Approximate Normal Coordinate    |
             |   Rational Function Optimization    |
             |                                     |
             =======================================
Ref. for RF algo: F.Eckert, P.Pulay, H.-J.Werner
                  J.Comput.Chem. 18 (1997) 1473.
ANC idea implemented by S. Grimme in the 2000ers (unpublished)
restraining potential by S. Ehrlich.
dumping coords to <xtbopt.coord> and <xtbopt.log
 optlevel                         1
 Maxcycle                       365
 Maxmicro                        20
 Econv         1.000000000000000E-006
 Gconv         8.000000000000000E-004
 Maxdispl       1.00000000000000     
 Hlow          4.000000000000000E-003
 S6             20.0000000000000     
 Nvar                        213

generating ANC from model Hessian ...
 Shifting diagonal of input Hessian by   4.544229014262323E-003
 Lowest  eigenvalues of input Hessian
    0.004000   -0.000000   -0.000000    0.000000    0.000000    0.000000
    0.000000    0.007582    0.007602    0.008872    0.009006    0.010695
    0.010695    0.013661    0.013661    0.015340    0.017391    0.017654
 Highest eigenvalues
    2.448614    2.449618    2.452622    2.454005    2.454005    2.458334
 
cpu  time for ANC gen    0.37 s
wall time for ANC gen    0.14 s
................................................................................
.............................. CYCLE    1 ......................................
................................................................................
  q data taken from xtbrestart
  CAMM data taken from xtbrestart
   1   -153.4225965 -0.153423E+03  0.643E-06    5.07       0.0  T
   2   -153.4225965 -0.369482E-12  0.388E-06    5.07    3020.3  T
   3   -153.4225965 -0.255795E-12  0.174E-06    5.07    6740.7  T
speedup  9.07
cpu  time for SCC    1.48 s
wall time for SCC    0.16 s
speedup  9.90
cpu  time for grad    1.79 s
wall time for grad    0.18 s
 E :   -152.13266340  G :  0.092742    pred/act E change:  0.000D+00 -0.838D-11
Maxdispl :   0.1885   ||displ|| :   0.4010   Lambda : -0.211D-01
Largest |displ|/coords:  0.1885 (  49)  0.1851 (  73)  0.1649 (  11)
................................................................................
.............................. CYCLE    2 ......................................
................................................................................
   1   -153.4950194 -0.153495E+03  0.182E-01    5.22       0.0  T
   2   -153.4951750 -0.155659E-03  0.104E-01    5.20       1.0  T
   3   -153.4951114  0.636602E-04  0.455E-02    5.21       1.0  T
   4   -153.4952240 -0.112629E-03  0.822E-03    5.21       1.4  T
   5   -153.4952251 -0.109020E-05  0.401E-03    5.21       2.9  T
   6   -153.4952253 -0.198433E-06  0.171E-03    5.21       6.9  T
   7   -153.4952253 -0.480798E-07  0.628E-04    5.21      18.6  T
   8   -153.4952253 -0.754900E-08  0.193E-04    5.21      60.8  T
speedup  9.14
cpu  time for SCC    3.54 s
wall time for SCC    0.39 s
speedup  8.54
cpu  time for grad    1.23 s
wall time for grad    0.14 s
 E :   -152.14732429  G :  0.031590    pred/act E change:  0.000D+00 -0.147D-01
Maxdispl :   0.1656   ||displ|| :   0.3432   Lambda : -0.700D-02
Largest |displ|/coords:  0.1656 (  49)  0.1506 (  29)  0.1484 (  45)
................................................................................
.............................. CYCLE    3 ......................................
................................................................................
   1   -153.5333380 -0.153533E+03  0.180E-01    5.25       0.0  T
   2   -153.5334687 -0.130685E-03  0.992E-02    5.24       1.0  T
   3   -153.5334720 -0.332422E-05  0.214E-02    5.25       1.0  T
   4   -153.5334893 -0.173262E-04  0.794E-03    5.24       1.5  T
   5   -153.5334907 -0.135118E-05  0.311E-03    5.24       3.8  T
   6   -153.5334909 -0.217069E-06  0.168E-03    5.24       7.0  T
   7   -153.5334909 -0.407711E-07  0.446E-04    5.24      26.2  T
   8   -153.5334909 -0.653267E-08  0.185E-04    5.24      63.1  T
speedup  8.97
cpu  time for SCC    3.08 s
wall time for SCC    0.34 s
speedup  8.52
cpu  time for grad    1.24 s
wall time for grad    0.15 s
 E :   -152.15144357  G :  0.013455    pred/act E change: -0.123D-01 -0.412D-02
Maxdispl :   0.0673   ||displ|| :   0.1215   Lambda : -0.542D-03
Largest |displ|/coords:  0.0673 (  29)  0.0554 (  20)  0.0523 (  45)
................................................................................
.............................. CYCLE    4 ......................................
................................................................................
   1   -153.5363067 -0.153536E+03  0.527E-02    5.23       0.0  T
   2   -153.5363241 -0.174704E-04  0.285E-02    5.23       1.0  T
   3   -153.5363248 -0.663667E-06  0.700E-03    5.23       1.7  T
   4   -153.5363264 -0.157781E-05  0.273E-03    5.23       4.3  T
   5   -153.5363266 -0.234947E-06  0.899E-04    5.23      13.0  T
   6   -153.5363266 -0.295227E-07  0.454E-04    5.23      25.8  T
   7   -153.5363266 -0.181038E-08  0.149E-04    5.23      78.5  T
speedup  9.38
cpu  time for SCC    2.64 s
wall time for SCC    0.28 s
speedup  8.84
cpu  time for grad    1.25 s
wall time for grad    0.14 s
 E :   -152.15174920  G :  0.003155    pred/act E change: -0.391D-02 -0.306D-03
Maxdispl :   0.0328   ||displ|| :   0.0377   Lambda : -0.394D-04
Largest |displ|/coords:  0.0328 (  20)  0.0122 (  11)  0.0118 (  45)
................................................................................
.............................. CYCLE    5 ......................................
................................................................................
   1   -153.5360449 -0.153536E+03  0.109E-02    5.23       0.0  T
   2   -153.5360458 -0.982851E-06  0.576E-03    5.23       2.0  T
   3   -153.5360459 -0.687160E-07  0.170E-03    5.23       6.9  T
   4   -153.5360460 -0.449131E-07  0.464E-04    5.23      25.2  T
   5   -153.5360460 -0.391182E-08  0.130E-04    5.23      89.8  T
   6   -153.5360460 -0.585402E-09  0.576E-05    5.23     203.1  T
speedup  9.82
cpu  time for SCC    2.49 s
wall time for SCC    0.25 s
speedup 11.44
cpu  time for grad    2.12 s
wall time for grad    0.19 s
 E :   -152.15177541  G :  0.001120    pred/act E change: -0.275D-03 -0.262D-04
Maxdispl :   0.0294   ||displ|| :   0.0321   Lambda : -0.136D-04
Largest |displ|/coords:  0.0294 (  20)  0.0104 (  11)  0.0061 (  29)
................................................................................
.............................. CYCLE    6 ......................................
................................................................................
   1   -153.5357038 -0.153536E+03  0.562E-03    5.23       0.0  T
   2   -153.5357041 -0.251340E-06  0.316E-03    5.23       3.7  T
   3   -153.5357041 -0.515354E-08  0.105E-03    5.23      11.2  T
   4   -153.5357041 -0.226243E-07  0.263E-04    5.23      44.4  T
   5   -153.5357041 -0.197662E-08  0.114E-04    5.23     103.1  T
   6   -153.5357041 -0.657792E-09  0.303E-05    5.23     386.3  T
speedup 10.13
cpu  time for SCC    2.50 s
wall time for SCC    0.25 s
speedup  8.50
cpu  time for grad    1.45 s
wall time for grad    0.17 s
 E :   -152.15178409  G :  0.000707    pred/act E change: -0.198D-04 -0.868D-05
Maxdispl :   0.0160   ||displ|| :   0.0183   Lambda : -0.361D-05
Largest |displ|/coords:  0.0160 (  20)  0.0066 (  29)  0.0055 (  11)
................................................................................
.............................. CYCLE    7 ......................................
................................................................................
   1   -153.5357071 -0.153536E+03  0.287E-03    5.23       0.0  T
   2   -153.5357071 -0.110445E-07  0.172E-03    5.23       6.8  T
   3   -153.5357071 -0.160242E-09  0.211E-04    5.23      55.5  T
   4   -153.5357071 -0.163496E-08  0.570E-05    5.23     205.4  T
   5   -153.5357071 -0.521823E-10  0.166E-05    5.23     703.2  T
speedup  9.24
cpu  time for SCC    2.12 s
wall time for SCC    0.23 s
speedup  8.46
cpu  time for grad    1.47 s
wall time for grad    0.17 s
 E :   -152.15178645  G :  0.000517    pred/act E change: -0.682D-05 -0.236D-05
Maxdispl :   0.0068   ||displ|| :   0.0084   Lambda : -0.103D-05
Largest |displ|/coords:  0.0068 (  20)  0.0037 (  29)  0.0020 (  11)
................................................................................
.............................. CYCLE    8 ......................................
................................................................................
   1   -153.5357774 -0.153536E+03  0.155E-03    5.23       0.0  T
   2   -153.5357775 -0.155498E-07  0.905E-04    5.23      12.9  T
   3   -153.5357775  0.385441E-08  0.379E-04    5.23      30.9  T
   4   -153.5357775 -0.660248E-08  0.685E-05    5.23     170.8  T
   5   -153.5357775 -0.200998E-09  0.244E-05    5.23     480.4  T
speedup  8.54
cpu  time for SCC    2.43 s
wall time for SCC    0.28 s
speedup  9.20
cpu  time for grad    1.50 s
wall time for grad    0.16 s
 E :   -152.15178707  G :  0.000250    pred/act E change: -0.180D-05 -0.620D-06
Maxdispl :   0.0007   ||displ|| :   0.0013   Lambda : -0.120D-06
Largest |displ|/coords:  0.0007 (  20)  0.0006 (  49)  0.0006 (  45)
ancopt converged in          8 cycles
total energy gain (kcal):    -12.0003
================
 final structure:
================
    73
       -152.15178707
C          -3.17046390286591   -1.60975499766737    0.00000000077524
C           1.60975499858097   -3.17046390589662    0.00000000024988
C           3.17046390472501    1.60975499684457    0.00000000000546
C          -1.60975499701913    3.17046390441691   -0.00000000022817
C          -3.55412026179539   -0.10524765561698    0.00000000032326
C           0.10524765593199   -3.55412026473394    0.00000000031160
C           3.55412026306528    0.10524765441418    0.00000000030982
C          -0.10524765442851    3.55412026301006   -0.00000000043148
N          -2.97485575419648    0.38459682146668   -1.22067555781634
N          -0.38459682084640   -2.97485575581279   -1.22067555642939
N           2.97485575118459   -0.38459682321261   -1.22067555478683
N           0.38459682307377    2.97485575272052    1.22067555499694
N          -2.97485574978896    0.38459682246386    1.22067555469132
N          -0.38459682131955   -2.97485575431312    1.22067555519970
N           2.97485575549101   -0.38459682222513    1.22067555720737
N           0.38459682275580    2.97485575341612   -1.22067555627736
N          -2.42739374726715   -1.76238729222161   -1.22069651387917
N           1.76238729378929   -2.42739375313335   -1.22069651552762
N           2.42739374965116    1.76238729167104   -1.22069651500981
N          -1.76238729238793    2.42739375180523    1.22069651565310
N          -2.42739374896885   -1.76238729279456    1.22069651584052
N           1.76238729287920   -2.42739374999892    1.22069651357535
N           2.42739375126877    1.76238729197187    1.22069651515201
N          -1.76238729123330    2.42739374774647   -1.22069651345596
C          -2.45436731892580   -0.62596438651124   -2.00179456869086
C           0.62596438581807   -2.45436731964208   -2.00179456966839
C           2.45436732211412    0.62596438525845   -2.00179456882126
C          -0.62596438405000    2.45436731765501    2.00179456978071
C          -2.45436731909698   -0.62596438554965    2.00179456971456
C           0.62596438606995   -2.45436731893998    2.00179457021255
C           2.45436732227630    0.62596438604803    2.00179457194072
C          -0.62596438445110    2.45436731583138   -2.00179456776699
O          -2.12648501822119   -0.54234934292999   -3.14873553688693
O           0.54234934048999   -2.12648501348939   -3.14873553517772
O           2.12648502351258    0.54234934120679   -3.14873553769365
O          -0.54234933841030    2.12648501428920    3.14873553602615
O          -2.12648502073699   -0.54234934076970    3.14873553836386
O           0.54234934096902   -2.12648501569005    3.14873553675675
O           2.12648502255393    0.54234934195571    3.14873553940980
O          -0.54234933930971    2.12648501109393   -3.14873553465824
C          -2.95234947441478    1.75245101893816   -1.66073060718569
C          -1.75245101855281   -2.95234947513809   -1.66073060726985
C           2.95234947459819   -1.75245102067112   -1.66073060722433
C           1.75245102037348    2.95234947410540    1.66073060732730
C          -2.95234947352229    1.75245101978255    1.66073060755139
C          -1.75245101895108   -2.95234947532944    1.66073060725200
C           2.95234947540829   -1.75245101985081    1.66073060718747
C           1.75245102028399    2.95234947414981   -1.66073060729945
H          -3.84822128707602    2.28418630439820   -1.31909346662899
H          -2.28418630438953   -3.84822128780666   -1.31909346764109
H           3.84822128873285   -2.28418630375549   -1.31909346705884
H           2.28418630501393    3.84822128754216    1.31909346801355
H          -3.84822128769873    2.28418630336747    1.31909346818195
H          -2.28418630397028   -3.84822128810398    1.31909346647053
H           3.84822128812402   -2.28418630513275    1.31909346692619
H           2.28418630524477    3.84822128701651   -1.31909346655674
H          -2.89680913600493    1.71948214712704   -2.75774498211820
H          -1.71948214556626   -2.89680913554950   -2.75774498203158
H           2.89680913672476   -1.71948214591119   -2.75774498193466
H           1.71948214629944    2.89680913549552    2.75774498193870
H          -2.89680913551524    1.71948214490481    2.75774498220620
H          -1.71948214567982   -2.89680913847552    2.75774498193989
H           2.89680913720542   -1.71948214775924    2.75774498182825
H           1.71948214743681    2.89680913644734   -2.75774498214817
H          -4.64849291993300    0.06580578906641    0.00000000063781
H          -0.06580578886590   -4.64849292287099    0.00000000028067
H           4.64849292126508   -0.06580579059863   -0.00000000026822
H           0.06580579010758    4.64849292133252   -0.00000000010846
H          -4.04929406544178   -2.28397366635736    0.00000000020407
H           2.28397366713935   -4.04929406853288    0.00000000060008
H           4.04929406736337    2.28397366534055   -0.00000000022093
H          -2.28397366534612    4.04929406732040   -0.00000000073500
KR         -0.00000006127393    0.00000004137182   -0.00000001540632
 
 Bond Distances (Angstroems)
 ---------------------------
C1-C5=1.5527         C1-N17=1.4372        C1-N21=1.4372        C1-H69=1.1077        C2-C6=1.5527         C2-N18=1.4372        
C2-N22=1.4372        C2-H70=1.1077        C3-C7=1.5527         C3-N19=1.4372        C3-N23=1.4372        C3-H71=1.1077        
C4-C8=1.5527         C4-N20=1.4372        C4-N24=1.4372        C4-H72=1.1077        C5-C1=1.5527         C5-N9=1.4372         
C5-N13=1.4372        C5-H65=1.1077        C6-C2=1.5527         C6-N10=1.4372        C6-N14=1.4372        C6-H66=1.1077        
C7-C3=1.5527         C7-N11=1.4372        C7-N15=1.4372        C7-H67=1.1077        C8-C4=1.5527         C8-N12=1.4372        
C8-N16=1.4372        C8-H68=1.1077        N9-C5=1.4372         N9-C25=1.3792        N9-C41=1.4371        N10-C6=1.4372        
N10-C26=1.3792       N10-C42=1.4371       N11-C7=1.4372        N11-C27=1.3792       N11-C43=1.4371       N12-C8=1.4372        
N12-C28=1.3792       N12-C44=1.4371       N13-C5=1.4372        N13-C29=1.3792       N13-C45=1.4371       N14-C6=1.4372        
N14-C30=1.3792       N14-C46=1.4371       N15-C7=1.4372        N15-C31=1.3792       N15-C47=1.4371       N16-C8=1.4372        
N16-C32=1.3792       N16-C48=1.4371       N17-C1=1.4372        N17-C25=1.3792       N17-C42=1.4371       N18-C2=1.4372        
N18-C26=1.3792       N18-C43=1.4371       N19-C3=1.4372        N19-C27=1.3792       N19-C48=1.4371       N20-C4=1.4372        
N20-C28=1.3792       N20-C45=1.4371       N21-C1=1.4372        N21-C29=1.3792       N21-C46=1.4371       N22-C2=1.4372        
N22-C30=1.3792       N22-C47=1.4371       N23-C3=1.4372        N23-C31=1.3792       N23-C44=1.4371       N24-C4=1.4372        
N24-C32=1.3792       N24-C41=1.4371       C25-N9=1.3792        C25-N17=1.3792       C25-O33=1.1958       C26-N10=1.3792       
C26-N18=1.3792       C26-O34=1.1958       C27-N11=1.3792       C27-N19=1.3792       C27-O35=1.1958       C28-N12=1.3792       
C28-N20=1.3792       C28-O36=1.1958       C29-N13=1.3792       C29-N21=1.3792       C29-O37=1.1958       C30-N14=1.3792       
C30-N22=1.3792       C30-O38=1.1958       C31-N15=1.3792       C31-N23=1.3792       C31-O39=1.1958       C32-N16=1.3792       
C32-N24=1.3792       C32-O40=1.1958       O33-C25=1.1958       O34-C26=1.1958       O35-C27=1.1958       O36-C28=1.1958       
O37-C29=1.1958       O38-C30=1.1958       O39-C31=1.1958       O40-C32=1.1958       C41-N9=1.4371        C41-N24=1.4371       
C41-H49=1.0964       C41-H57=1.0989       C42-N10=1.4371       C42-N17=1.4371       C42-H50=1.0964       C42-H58=1.0989       
C43-N11=1.4371       C43-N18=1.4371       C43-H51=1.0964       C43-H59=1.0989       C44-N12=1.4371       C44-N23=1.4371       
C44-H52=1.0964       C44-H60=1.0989       C45-N13=1.4371       C45-N20=1.4371       C45-H53=1.0964       C45-H61=1.0989       
C46-N14=1.4371       C46-N21=1.4371       C46-H54=1.0964       C46-H62=1.0989       C47-N15=1.4371       C47-N22=1.4371       
C47-H55=1.0964       C47-H63=1.0989       C48-N16=1.4371       C48-N19=1.4371       C48-H56=1.0964       C48-H64=1.0989       
H49-C41=1.0964       H50-C42=1.0964       H51-C43=1.0964       H52-C44=1.0964       H53-C45=1.0964       H54-C46=1.0964       
H55-C47=1.0964       H56-C48=1.0964       H57-C41=1.0989       H58-C42=1.0989       H59-C43=1.0989       H60-C44=1.0989       
H61-C45=1.0989       H62-C46=1.0989       H63-C47=1.0989       H64-C48=1.0989       H65-C5=1.1077        H66-C6=1.1077        
H67-C7=1.1077        H68-C8=1.1077        H69-C1=1.1077        H70-C2=1.1077        H71-C3=1.1077        H72-C4=1.1077        
 C  H  Rav=1.1010 sigma=0.0048  Rmin=1.0964  Rmax=1.1077    24
 C  C  Rav=1.5527 sigma=0.0000  Rmin=1.5527  Rmax=1.5527     4
 N  C  Rav=1.4178 sigma=0.0273  Rmin=1.3792  Rmax=1.4372    48
 O  C  Rav=1.1958 sigma=0.0000  Rmin=1.1958  Rmax=1.1958     8
 
 selected bond angles (degree)
 --------------------
N17-C1-C5=103.34               N21-C1-C5=103.34               N21-C1-N17=116.28              H69-C1-C5=113.19               
H69-C1-N17=110.22              H69-C1-N21=110.22              N18-C2-C6=103.34               N22-C2-C6=103.34               
N22-C2-N18=116.28              H70-C2-C6=113.19               H70-C2-N18=110.22              H70-C2-N22=110.22              
N19-C3-C7=103.34               N23-C3-C7=103.34               N23-C3-N19=116.28              H71-C3-C7=113.19               
H71-C3-N19=110.22              H71-C3-N23=110.22              N20-C4-C8=103.34               N24-C4-C8=103.34               
N24-C4-N20=116.28              H72-C4-C8=113.19               H72-C4-N20=110.22              H72-C4-N24=110.22              
N9-C5-C1=103.34                N13-C5-C1=103.34               N13-C5-N9=116.28               H65-C5-C1=113.19               
H65-C5-N9=110.22               H65-C5-N13=110.22              N10-C6-C2=103.34               N14-C6-C2=103.34               
N14-C6-N10=116.28              H66-C6-C2=113.19               H66-C6-N10=110.22              H66-C6-N14=110.22              
N11-C7-C3=103.34               N15-C7-C3=103.34               N15-C7-N11=116.28              H67-C7-C3=113.19               
H67-C7-N11=110.22              H67-C7-N15=110.22              N12-C8-C4=103.34               N16-C8-C4=103.34               
N16-C8-N12=116.28              H68-C8-C4=113.19               H68-C8-N12=110.22              H68-C8-N16=110.22              
C25-N9-C5=112.54               C41-N9-C5=126.21               C41-N9-C25=121.20              C26-N10-C6=112.54              
C42-N10-C6=126.21              C42-N10-C26=121.20             
 
 selected dihedral angles (degree)
 ---------------------------------
N9-C5-C1-N17=  0.00           N9-C5-C1-N21=121.59           N9-C5-C1-H69=240.80           N13-C5-C1-N17=238.41          
N13-C5-C1-N21=  0.00          N13-C5-C1-H69=119.20          H65-C5-C1-N17=119.20          H65-C5-C1-N21=240.80          
H65-C5-C1-H69=  0.00          N10-C6-C2-N18=  0.00          N10-C6-C2-N22=121.59          N10-C6-C2-H70=240.80          
N14-C6-C2-N18=238.41          N14-C6-C2-N22=  0.00          N14-C6-C2-H70=119.20          H66-C6-C2-N18=119.20          
H66-C6-C2-N22=240.80          H66-C6-C2-H70=  0.00          N11-C7-C3-N19=  0.00          N11-C7-C3-N23=121.59          
N11-C7-C3-H71=240.80          N15-C7-C3-N19=238.41          N15-C7-C3-N23=  0.00          N15-C7-C3-H71=119.20          
H67-C7-C3-N19=119.20          H67-C7-C3-N23=240.80          H67-C7-C3-H71=  0.00          N12-C8-C4-N20=  0.00          
N12-C8-C4-N24=238.41          N12-C8-C4-H72=119.20          N16-C8-C4-N20=121.59          N16-C8-C4-N24=  0.00          
N16-C8-C4-H72=240.80          H68-C8-C4-N20=240.80          H68-C8-C4-N24=119.20          H68-C8-C4-H72=  0.00          
C25-N9-C5-C1=  7.16           C25-N9-C5-N13=119.59          C25-N9-C5-H65=245.93          C41-N9-C5-C1=184.92           
C41-N9-C5-N13=297.34          C41-N9-C5-H65= 63.68          C26-N10-C6-C2=  7.16          C26-N10-C6-N14=119.59         
C26-N10-C6-H66=245.93         C42-N10-C6-C2=184.92          C42-N10-C6-N14=297.34         C42-N10-C6-H66= 63.68         
 
 CMA Distance (Angstroems)
 ---------------------------
R(CMA):  0.0000
 
             =======================================
             |                                     |
             |        S C C  calculation           |
             |                                     |
             =======================================
 #proc     :                      1
 Ncao      :                    226
 Nao       :                    225
 Nel       :                    256
 T(el)     :   300.0
 intcut    :    25.0
 scfconv   :  0.100E-05
   qconv   :  0.200E-04
 intneglect:  0.100E-07
 broydamp  :      0.400
 Nshell    :                    123
 iter      E             dE          RMSdq      gap      omega  full diag
   1   -153.5357775 -0.153536E+03  0.977E-06    5.23       0.0  T
   2   -153.5357775 -0.426326E-11  0.524E-06    5.23    2232.0  T
   3   -153.5357775 -0.682121E-12  0.280E-06    5.23    4185.1  T
speedup  8.58
cpu  time for SCC    1.94 s
wall time for SCC    0.23 s

          eigenvalues
 #    :         116        117        118        119        120        121        122        123
 occ. :        2.000      2.000      2.000      2.000      2.000      2.000      2.000      2.000
 eps  :       -10.385    -10.352    -10.352    -10.307    -10.293    -10.196    -10.135    -10.118
 #    :         124        125        126        127        128        129        130        131
 occ. :        2.000      2.000      2.000      2.000      2.000      0.000      0.000      0.000
 eps  :       -10.118    -10.088    -10.088    -10.029     -9.942     -4.709     -4.606     -4.497
 #    :         132        133        134        135        136        137        138        139
 occ. :        0.000      0.000      0.000      0.000      0.000      0.000      0.000      0.000
 eps  :        -4.497     -4.423     -4.423     -4.363     -4.203     -0.431     -0.405     -0.371
 
 
 Mulliken/CM5 charges        n(s)   n(p)   n(d)
     1 C   0.06825  0.14933   1.078  2.854  0.000
     2 C   0.06825  0.14933   1.078  2.854  0.000
     3 C   0.06825  0.14933   1.078  2.854  0.000
     4 C   0.06825  0.14933   1.078  2.854  0.000
     5 C   0.06825  0.14933   1.078  2.854  0.000
     6 C   0.06825  0.14933   1.078  2.854  0.000
     7 C   0.06825  0.14933   1.078  2.854  0.000
     8 C   0.06825  0.14933   1.078  2.854  0.000
     9 N  -0.03374 -0.27527   1.125  3.909  0.000
    10 N  -0.03374 -0.27527   1.125  3.909  0.000
    11 N  -0.03374 -0.27527   1.125  3.909  0.000
    12 N  -0.03374 -0.27527   1.125  3.909  0.000
    13 N  -0.03374 -0.27527   1.125  3.909  0.000
    14 N  -0.03374 -0.27527   1.125  3.909  0.000
    15 N  -0.03374 -0.27527   1.125  3.909  0.000
    16 N  -0.03374 -0.27527   1.125  3.909  0.000
    17 N  -0.03374 -0.27527   1.125  3.909  0.000
    18 N  -0.03374 -0.27527   1.125  3.909  0.000
    19 N  -0.03374 -0.27527   1.125  3.909  0.000
    20 N  -0.03374 -0.27527   1.125  3.909  0.000
    21 N  -0.03374 -0.27527   1.125  3.909  0.000
    22 N  -0.03374 -0.27527   1.125  3.909  0.000
    23 N  -0.03374 -0.27527   1.125  3.909  0.000
    24 N  -0.03374 -0.27527   1.125  3.909  0.000
    25 C   0.23507  0.40761   1.052  2.713  0.000
    26 C   0.23507  0.40761   1.052  2.713  0.000
    27 C   0.23507  0.40761   1.052  2.713  0.000
    28 C   0.23507  0.40761   1.052  2.713  0.000
    29 C   0.23507  0.40761   1.052  2.713  0.000
    30 C   0.23507  0.40761   1.052  2.713  0.000
    31 C   0.23507  0.40761   1.052  2.713  0.000
    32 C   0.23507  0.40761   1.052  2.713  0.000
    33 O  -0.39959 -0.44190   1.725  4.674  0.000
    34 O  -0.39959 -0.44190   1.725  4.674  0.000
    35 O  -0.39959 -0.44190   1.725  4.674  0.000
    36 O  -0.39959 -0.44190   1.725  4.674  0.000
    37 O  -0.39959 -0.44190   1.725  4.674  0.000
    38 O  -0.39959 -0.44190   1.725  4.674  0.000
    39 O  -0.39959 -0.44190   1.725  4.674  0.000
    40 O  -0.39959 -0.44190   1.725  4.674  0.000
    41 C   0.03228  0.05834   1.071  2.896  0.000
    42 C   0.03228  0.05834   1.071  2.896  0.000
    43 C   0.03228  0.05834   1.071  2.896  0.000
    44 C   0.03228  0.05834   1.071  2.896  0.000
    45 C   0.03228  0.05834   1.071  2.896  0.000
    46 C   0.03228  0.05834   1.071  2.896  0.000
    47 C   0.03228  0.05834   1.071  2.896  0.000
    48 C   0.03228  0.05834   1.071  2.896  0.000
    49 H   0.03528  0.11162   0.965  0.000  0.000
    50 H   0.03528  0.11162   0.965  0.000  0.000
    51 H   0.03528  0.11162   0.965  0.000  0.000
    52 H   0.03528  0.11162   0.965  0.000  0.000
    53 H   0.03528  0.11162   0.965  0.000  0.000
    54 H   0.03528  0.11162   0.965  0.000  0.000
    55 H   0.03528  0.11162   0.965  0.000  0.000
    56 H   0.03528  0.11162   0.965  0.000  0.000
    57 H   0.07399  0.16246   0.926  0.000  0.000
    58 H   0.07399  0.16246   0.926  0.000  0.000
    59 H   0.07399  0.16246   0.926  0.000  0.000
    60 H   0.07399  0.16246   0.926  0.000  0.000
    61 H   0.07399  0.16246   0.926  0.000  0.000
    62 H   0.07399  0.16246   0.926  0.000  0.000
    63 H   0.07399  0.16246   0.926  0.000  0.000
    64 H   0.07399  0.16246   0.926  0.000  0.000
    65 H   0.02527  0.10309   0.975  0.000  0.000
    66 H   0.02527  0.10309   0.975  0.000  0.000
    67 H   0.02527  0.10309   0.975  0.000  0.000
    68 H   0.02527  0.10309   0.975  0.000  0.000
    69 H   0.02528  0.10310   0.975  0.000  0.000
    70 H   0.02528  0.10310   0.975  0.000  0.000
    71 H   0.02528  0.10310   0.975  0.000  0.000
    72 H   0.02528  0.10310   0.975  0.000  0.000
    73 KR -0.02454 -0.00008   2.000  5.992  0.032
 
 Wiberg/Mayer (AO) data. WBOs > 0.1 written file <wbo>
 largest (>0.05) Wiberg bond orders for each atom
           total WBO             WBO to atom ...
     1  C   3.978    N   21 0.995    N   17 0.995    C    5 0.957    H   69 0.948
     2  C   3.978    N   22 0.995    N   18 0.995    C    6 0.957    H   70 0.948
     3  C   3.978    N   23 0.995    N   19 0.995    C    7 0.957    H   71 0.948
     4  C   3.978    N   20 0.995    N   24 0.995    C    8 0.957    H   72 0.948
     5  C   3.978    N   13 0.995    N    9 0.995    C    1 0.957    H   65 0.948
     6  C   3.978    N   14 0.995    N   10 0.995    C    2 0.957    H   66 0.948
     7  C   3.978    N   15 0.995    N   11 0.995    C    3 0.957    H   67 0.948
     8  C   3.978    N   12 0.995    N   16 0.995    C    4 0.957    H   68 0.948
     9  N   3.419    C   25 1.099    C   41 0.997    C    5 0.995    O   33 0.149
    10  N   3.419    C   26 1.099    C   42 0.997    C    6 0.995    O   34 0.149
    11  N   3.419    C   27 1.099    C   43 0.997    C    7 0.995    O   35 0.149
    12  N   3.419    C   28 1.099    C   44 0.997    C    8 0.995    O   36 0.149
    13  N   3.419    C   29 1.099    C   45 0.997    C    5 0.995    O   37 0.149
    14  N   3.419    C   30 1.099    C   46 0.997    C    6 0.995    O   38 0.149
    15  N   3.419    C   31 1.099    C   47 0.997    C    7 0.995    O   39 0.149
    16  N   3.419    C   32 1.099    C   48 0.997    C    8 0.995    O   40 0.149
    17  N   3.419    C   25 1.099    C   42 0.997    C    1 0.995    O   33 0.149
    18  N   3.419    C   26 1.099    C   43 0.997    C    2 0.995    O   34 0.149
    19  N   3.419    C   27 1.099    C   48 0.997    C    3 0.995    O   35 0.149
    20  N   3.419    C   28 1.099    C   45 0.997    C    4 0.995    O   36 0.149
    21  N   3.419    C   29 1.099    C   46 0.997    C    1 0.995    O   37 0.149
    22  N   3.419    C   30 1.099    C   47 0.997    C    2 0.995    O   38 0.149
    23  N   3.419    C   31 1.099    C   44 0.997    C    3 0.995    O   39 0.149
    24  N   3.419    C   32 1.099    C   41 0.997    C    4 0.995    O   40 0.149
    25  C   3.966    O   33 1.702    N    9 1.099    N   17 1.099
    26  C   3.966    O   34 1.702    N   10 1.099    N   18 1.099
    27  C   3.966    O   35 1.702    N   11 1.099    N   19 1.099
    28  C   3.966    O   36 1.702    N   12 1.099    N   20 1.099
    29  C   3.966    O   37 1.702    N   13 1.099    N   21 1.099
    30  C   3.966    O   38 1.702    N   14 1.099    N   22 1.099
    31  C   3.966    O   39 1.702    N   15 1.099    N   23 1.099
    32  C   3.966    O   40 1.702    N   16 1.099    N   24 1.099
    33  O   2.061    C   25 1.702    N    9 0.149    N   17 0.149
    34  O   2.061    C   26 1.702    N   10 0.149    N   18 0.149
    35  O   2.061    C   27 1.702    N   11 0.149    N   19 0.149
    36  O   2.061    C   28 1.702    N   12 0.149    N   20 0.149
    37  O   2.061    C   29 1.702    N   13 0.149    N   21 0.149
    38  O   2.061    C   30 1.702    N   14 0.149    N   22 0.149
    39  O   2.061    C   31 1.702    N   15 0.149    N   23 0.149
    40  O   2.061    C   32 1.702    N   16 0.149    N   24 0.149
    41  C   3.969    N    9 0.997    N   24 0.997    H   49 0.964    H   57 0.957
    42  C   3.969    N   10 0.997    N   17 0.997    H   50 0.964    H   58 0.957
    43  C   3.969    N   11 0.997    N   18 0.997    H   51 0.964    H   59 0.957
    44  C   3.969    N   12 0.997    N   23 0.997    H   52 0.964    H   60 0.957
    45  C   3.969    N   13 0.997    N   20 0.997    H   53 0.964    H   61 0.957
    46  C   3.969    N   14 0.997    N   21 0.997    H   54 0.964    H   62 0.957
    47  C   3.969    N   15 0.997    N   22 0.997    H   55 0.964    H   63 0.957
    48  C   3.969    N   16 0.997    N   19 0.997    H   56 0.964    H   64 0.957
    49  H   0.998    C   41 0.964
    50  H   0.998    C   42 0.964
    51  H   0.998    C   43 0.964
    52  H   0.998    C   44 0.964
    53  H   0.998    C   45 0.964
    54  H   0.998    C   46 0.964
    55  H   0.998    C   47 0.964
    56  H   0.998    C   48 0.964
    57  H   0.994    C   41 0.957
    58  H   0.994    C   42 0.957
    59  H   0.994    C   43 0.957
    60  H   0.994    C   44 0.957
    61  H   0.994    C   45 0.957
    62  H   0.994    C   46 0.957
    63  H   0.994    C   47 0.957
    64  H   0.994    C   48 0.957
    65  H   0.999    C    5 0.948
    66  H   0.999    C    6 0.948
    67  H   0.999    C    7 0.948
    68  H   0.999    C    8 0.948
    69  H   0.999    C    1 0.948
    70  H   0.999    C    2 0.948
    71  H   0.999    C    3 0.948
    72  H   0.999    C    4 0.948
    73  KR  0.079
 density
 
 cube file module (SG, 7/16)
 cube_pthr     :   0.005
 cube_step     :   0.400
 non-zero P (%):  31.472   nmat:    8073
 Grid Boundaries (x y z) :
   11.7843776984390        11.7843776985665        8.95024725629707     
  -11.7843776959218       -11.7843777014738       -8.95024725305402     
 Total # of points                156645
 writing density.cub
 N    (numint) : ******
cpu  time for cube   38.70 s
wall time for cube   37.37 s
 
molecular dipole:
                 x           y           z       tot (Debye)
 q only:       -0.000       0.000       0.000
   full:       -0.000       0.000       0.000       0.000
molecular quadrupole (traceless):
                xx          xy          yy          xz          yz          zz
 q only:       50.901      -0.000      50.901       0.000       0.000    -101.802
  q+dip:       62.832      -0.000      62.832       0.000      -0.000    -125.665
   full:       63.745      -0.000      63.745       0.000      -0.000    -127.491
 SCC converged in                      3  cycles
 
SCC energy    :    -153.5357775
rep           :       1.5004312
ES            :      -0.0054542
AES           :       0.0131361
disp          :      -0.1164408
XB            :       0.0000000
fix           :       0.0000000
total E       :    -152.1517871
atomizationE  :      19.6873182    12353.98
(atE without considerung molecular charge,
 total energy contains solvation terms)
H-L gap (eV)  :          5.2333
 !!!!!!!!!!!!!!!!!!!!!!!!!!!!!!!!!!!
 ! Note: the input coordinates are !
 ! NOT overwritten. The optimized  !
 ! ones are on file <xtbopt.coord> !
 ! (or on <xtbopt.xyz> if it was a !
 ! xyz file)                       !
 !!!!!!!!!!!!!!!!!!!!!!!!!!!!!!!!!!!
 
speedup  1.48
cpu  time for all    1 m 59.2 s
wall time for all    1 m 20.6 s
