 
        ______________________________________
       |                                      |
       |           ==================         |
       |                 x T B                |
       |           ==================         |
       |               S. Grimme              |
       |        Universitaet Bonn, MCTC       |
       |         2015-18, Version 5.0         |
       |      Sat Jan 20 11:00:33 CET 2018    |
       |______________________________________|
 
        This code comes without any warranty
        for non-commercial, academia use only.
        Cite GFN-xTB work as:
        S. Grimme, C. Bannwarth, P. Shushkov
        JCTC, 13 (2017) 1989-2009
        for GFN2:
        C. Bannwarth, S. Ehlert, S. Grimme
        to be published.
        sTDA-xTB:
        S. Grimme  &  C. Bannwarth, JCP 145 (2016) 054103
        in the mass-spec context additionally:
        V. Asgeirsson, C.Bauer, S. Grimme, Chem. Sci. 8 (2017) 4879
 
        with help from
        P. Shushkov, G. Brandenburg, S. Dohm, J. Pisarek,
        F. März, M. Checinski, S. Ehrlich, S. Spicher, 
        P. Pracht, E. Caldeweyher, S. Ehlert, and C. Bannwarth.
 
        usage        :
        xtb <coord_file> [options]
        where <coord_file> is a valid file of TM)
        (*coord, Bohr) or xmol (*xyz, Angstroem)
        format.

        options:
        -chrg <int>   : molecular charge
        -uhf  <int>   : # of unpaired electrons(=2*S)
        -nox          : skip second, extended part in sTDA-xTB
        -pop          : do population analysis
                      : (default for -nox)
        -mowr <real>  : cut MO write above (def.3 Eh)
        -molden       : write formatted molden file
        -parx <file>  : read parameters for sTDA-xTB
                        calc (def:~/.param_stda2.xtb)
        -parv <file>  : read parameters for vTB part in
                        sTDA-xTB (def: ~/.param_stda1.xtb)
        -xtemp <real> : el. temp for xTB (def. 0 K)
        -etemp <real> : el. temp for GFN (def. 300 K)
        -fod          : do a xTB calc. of the FOD
                        and write molden.input file 
                        with appropriate occupations
                        for plotting. Def. T=12500 K
 
        -gfn          : use GFN-xTB
        -grad         : GFN-xTB gradient
        -acc <real>   : GFN-xTB accuracy (def. 1.0)
        -opt [level]  : optimize at GFN-xTB
                      : level=crude,vloose,loose,
                      :       tight,vtight
        -hess         : compute Hessian at GFN-xTB
        -ohess        : optimize and compute Hessian
        -omd          : optimize and do MD
        -siman        : conformational search
        -screen       : opt. loop over ensemble
        -gmd          : annealed MD for GMD procedure
        -modef        : vib mode following
        -gbsa [string1] [string2]
                        use GBSA implicit solvent
                        for solvent [string1] and
                        solvation state [string2]=
                        reference, bar1M (default=1M)
        additional GFN/opt/MD/siman options read from
        $XTBHOME/.xtbrc or $set in coordinate file
 
       spin and charge state information can be on:
       <.CHRG> (charge) and <.UHF> (=nalpha-nbeta)
       -uhf and -chrg override the file info.
       useful machine settings:
       setenv MKL_NUM_THREADS <NCORE_ON_YOUR_MACHINE>
       setenv OMP_STACKSIZE 500m
       limit stacksize unlimited
 
       total energies in Eh, gaps/HL energies in eV
       please read REVISION and HOWTO files carefully
 =============================
  # OMP threads =                     1
 =============================
 
 xtbhome directory:/Applications/xtb/
 
 argument                      1 :-opt
 argument                      2 :tight
 
 number of atoms            :    89
 number of electrons        :   296
 charge                     :  0
 spin                       : 0.0
 first test random number   :  0.6006
 
 
KAB for pair M(3d)-M(3d) :  1.1000
KAB for pair M(4d)-M(4d) :  1.2000
KAB for pair M(5d)-M(5d) :  1.2000
 -----------------------------------------
  G F N (Geometry, Frequency, Non-covalent)
        parametrization, version                     2
 /Applications/xtb/.param_gfn2.xtb
 -----------------------------------------
      method parameters     
 k(s)        :  1.8500
 k(p)        :  2.2500
 k(d)        :  2.0000
 k(f)        :  0.0000
 alphaj      :  1.0000
 kEN (H0ij)  : -2.3620
 D3 a1       :  0.6900
 D3 a2       :  4.0530
 D3 s8       :  2.0000
 D3atm       :  1.0000
 AESdamp     :  5.5000
 AESrad      :  1.9230
 expscalexp  : -0.2500
 
     -------------------------
     ! NO SOLVENT MODEL USED !
     -------------------------
 
 doing EN charges ...
 sum q : -0.1776357D-14
 point charge moment (au)
     X       Y       Z   
   0.0000   0.0000   0.0000  total (Debye):    0.000
 
            Z      q(EN)   CN      Cart. coordinates
     1  C   4.0    0.18    4.49    -6.04489    -3.01551     0.00000
     2  C   4.0    0.18    4.49     3.01551    -6.04489     0.00000
     3  C   4.0    0.18    4.49     6.04489     3.01551     0.00000
     4  C   4.0    0.18    4.49    -3.01551     6.04489     0.00000
     5  C   4.0    0.18    4.49    -6.75380    -0.14712     0.00000
     6  C   4.0    0.18    4.49     0.14712    -6.75380     0.00000
     7  C   4.0    0.18    4.49     6.75380     0.14712     0.00000
     8  C   4.0    0.18    4.49    -0.14712     6.75380     0.00000
     9  N   5.0   -0.20    3.23    -5.73891     0.78220    -2.34041
    10  N   5.0   -0.20    3.23    -0.78220    -5.73891    -2.34041
    11  N   5.0   -0.20    3.23     5.73891    -0.78220    -2.34041
    12  N   5.0   -0.20    3.23     0.78220     5.73891     2.34041
    13  N   5.0   -0.20    3.23    -5.73891     0.78220     2.34041
    14  N   5.0   -0.20    3.23    -0.78220    -5.73891     2.34041
    15  N   5.0   -0.20    3.23     5.73891    -0.78220     2.34041
    16  N   5.0   -0.20    3.23     0.78220     5.73891    -2.34041
    17  N   5.0   -0.20    3.23    -4.71481    -3.36596    -2.34165
    18  N   5.0   -0.20    3.23     3.36596    -4.71481    -2.34165
    19  N   5.0   -0.20    3.23     4.71481     3.36596    -2.34165
    20  N   5.0   -0.20    3.23    -3.36596     4.71481     2.34165
    21  N   5.0   -0.20    3.23    -4.71481    -3.36596     2.34165
    22  N   5.0   -0.20    3.23     3.36596    -4.71481     2.34165
    23  N   5.0   -0.20    3.23     4.71481     3.36596     2.34165
    24  N   5.0   -0.20    3.23    -3.36596     4.71481    -2.34165
    25  C   4.0    0.44    3.27    -4.72426    -1.16715    -3.81917
    26  C   4.0    0.44    3.27     1.16715    -4.72426    -3.81917
    27  C   4.0    0.44    3.27     4.72426     1.16715    -3.81917
    28  C   4.0    0.44    3.27    -1.16715     4.72426     3.81917
    29  C   4.0    0.44    3.27    -4.72426    -1.16715     3.81917
    30  C   4.0    0.44    3.27     1.16715    -4.72426     3.81917
    31  C   4.0    0.44    3.27     4.72426     1.16715     3.81917
    32  C   4.0    0.44    3.27    -1.16715     4.72426    -3.81917
    33  O   6.0   -0.34    1.06    -4.05422    -1.00006    -5.99485
    34  O   6.0   -0.34    1.06     1.00006    -4.05422    -5.99485
    35  O   6.0   -0.34    1.06     4.05422     1.00006    -5.99485
    36  O   6.0   -0.34    1.06    -1.00006     4.05422     5.99485
    37  O   6.0   -0.34    1.06    -4.05422    -1.00006     5.99485
    38  O   6.0   -0.34    1.06     1.00006    -4.05422     5.99485
    39  O   6.0   -0.34    1.06     4.05422     1.00006     5.99485
    40  O   6.0   -0.34    1.06    -1.00006     4.05422    -5.99485
    41  C   4.0    0.25    4.13    -5.61226     3.38771    -3.16659
    42  C   4.0    0.25    4.13    -3.38771    -5.61226    -3.16659
    43  C   4.0    0.25    4.13     5.61226    -3.38771    -3.16659
    44  C   4.0    0.25    4.13     3.38771     5.61226     3.16659
    45  C   4.0    0.25    4.13    -5.61226     3.38771     3.16659
    46  C   4.0    0.25    4.13    -3.38771    -5.61226     3.16659
    47  C   4.0    0.25    4.13     5.61226    -3.38771     3.16659
    48  C   4.0    0.25    4.13     3.38771     5.61226    -3.16659
    49  H   1.0   -0.05    1.00    -7.29170     4.40181    -2.50608
    50  H   1.0   -0.05    1.00    -4.40181    -7.29170    -2.50608
    51  H   1.0   -0.05    1.00     7.29170    -4.40181    -2.50608
    52  H   1.0   -0.05    1.00     4.40181     7.29170     2.50608
    53  H   1.0   -0.05    1.00    -7.29170     4.40181     2.50608
    54  H   1.0   -0.05    1.00    -4.40181    -7.29170     2.50608
    55  H   1.0   -0.05    1.00     7.29170    -4.40181     2.50608
    56  H   1.0   -0.05    1.00     4.40181     7.29170    -2.50608
    57  H   1.0   -0.05    1.01    -5.57378     3.36209    -5.23229
    58  H   1.0   -0.05    1.01    -3.36209    -5.57378    -5.23229
    59  H   1.0   -0.05    1.01     5.57378    -3.36209    -5.23229
    60  H   1.0   -0.05    1.01     3.36209     5.57378     5.23229
    61  H   1.0   -0.05    1.01    -5.57378     3.36209     5.23229
    62  H   1.0   -0.05    1.01    -3.36209    -5.57378     5.23229
    63  H   1.0   -0.05    1.01     5.57378    -3.36209     5.23229
    64  H   1.0   -0.05    1.01     3.36209     5.57378    -5.23229
    65  C   4.0    0.11    4.20    -9.62872    -0.85444     0.00000
    66  C   4.0    0.11    4.20     0.85444    -9.62872     0.00000
    67  C   4.0    0.11    4.20     9.62872     0.85444     0.00000
    68  C   4.0    0.11    4.20    -0.85444     9.62872     0.00000
    69  H   1.0   -0.06    1.00   -10.63532    -0.22304    -1.68805
    70  H   1.0   -0.06    1.00     0.22304   -10.63532    -1.68805
    71  H   1.0   -0.06    1.00    10.63532     0.22304    -1.68805
    72  H   1.0   -0.06    1.00    -0.22304    10.63532     1.68805
    73  H   1.0   -0.06    1.00   -10.63532    -0.22304     1.68805
    74  H   1.0   -0.06    1.00     0.22304   -10.63532     1.68805
    75  H   1.0   -0.06    1.00    10.63532     0.22304     1.68805
    76  H   1.0   -0.06    1.00    -0.22304    10.63532    -1.68805
    77  C   4.0    0.11    4.20    -8.91828    -3.72841     0.00000
    78  C   4.0    0.11    4.20     3.72841    -8.91828     0.00000
    79  C   4.0    0.11    4.20     8.91828     3.72841     0.00000
    80  C   4.0    0.11    4.20    -3.72841     8.91828     0.00000
    81  H   1.0   -0.06    1.00    -9.51377    -4.75650    -1.68796
    82  H   1.0   -0.06    1.00     4.75650    -9.51377    -1.68796
    83  H   1.0   -0.06    1.00     9.51377     4.75650    -1.68796
    84  H   1.0   -0.06    1.00    -4.75650     9.51377     1.68796
    85  H   1.0   -0.06    1.00    -9.51377    -4.75650     1.68796
    86  H   1.0   -0.06    1.00     4.75650    -9.51377     1.68796
    87  H   1.0   -0.06    1.00     9.51377     4.75650     1.68796
    88  H   1.0   -0.06    1.00    -4.75650     9.51377    -1.68796
    89  NE  8.0   -0.06    0.03     0.00000     0.00000     0.00000
 
  Z AO/shell   Hii/eV     exponent
  1     Sat Jan 20 17:55:17 CET 2018    EN: 2.200 GAM: 0.531  GM3:-0.4370
     1s    -10.248275    1.266496
  6     Sat Jan 20 17:55:17 CET 2018    EN: 2.550 GAM: 0.417  GM3:-0.0654
     2s    -15.292509    2.030071
     2p    -10.408465    1.801676
  7     Sat Jan 20 17:55:17 CET 2018    EN: 3.040 GAM: 0.444  GM3:-0.1301
     2s    -16.687725    2.226550
     2p    -13.175143    1.981921
  8     Sat Jan 20 17:55:17 CET 2018    EN: 3.440 GAM: 0.468  GM3: 0.0937
     2s    -20.924998    2.442614
     2p    -15.243501    2.233841
 10     Sun Jan 21 09:56:42 CET 2018    EN: 4.500 GAM: 1.109  GM3: 0.2000
     2s    -25.000000    2.800000
     2p    -16.000000    2.600000
     3d     -4.162395    2.600000
 no old-style atom pair restraing (fixing) potential
 
 molecular fragmentation (1/2 indicates fragments):
11111111111111111111111111111111111111111111111111111111111111111111111111111111
111111112
# atoms in fragment 1/2:    88     1
 fragment masses (1/2) :      768.71       20.18
CMA distance (Bohr)    :   0.000
constraining FC (au)   :  0.0500
 
             =======================================
             |                                     |
             |        S C C  calculation           |
             |                                     |
             =======================================
 #proc     :                      1
 Ncao      :                    266
 Nao       :                    265
 Nel       :                    296
 T(el)     :   300.0
 intcut    :    25.0
 scfconv   :  0.100E-05
   qconv   :  0.200E-04
 intneglect:  0.100E-07
 broydamp  :      0.400
 Nshell    :                    147
 iter      E             dE          RMSdq      gap      omega  full diag
   1   -175.2402441 -0.175240E+03  0.988E+00    4.67       0.0  T
   2   -175.9478708 -0.707627E+00  0.537E+00    4.91       1.0  T
   3   -175.9227830  0.250878E-01  0.212E+00    4.37       1.0  T
   4   -176.0403612 -0.117578E+00  0.560E-01    4.99       1.0  T
   5   -176.0524482 -0.120871E-01  0.223E-01    4.86       1.0  T
   6   -176.0532719 -0.823706E-03  0.863E-02    4.88       1.0  T
   7   -176.0534324 -0.160463E-03  0.345E-02    4.86       1.0  T
   8   -176.0534700 -0.376297E-04  0.161E-02    4.87       1.0  T
   9   -176.0534892 -0.192264E-04  0.541E-03    4.87       2.0  T
  10   -176.0534884  0.804661E-06  0.467E-03    4.87       2.3  T
  11   -176.0534900 -0.156685E-05  0.745E-04    4.87      14.2  T
  12   -176.0534900 -0.134038E-07  0.405E-04    4.87      26.2  T
  13   -176.0534900 -0.101819E-07  0.146E-04    4.87      72.6  T
  14   -176.0534900 -0.168285E-08  0.191E-05    4.87     555.2  T
speedup  6.36
cpu  time for SCC    4.37 s
wall time for SCC    0.69 s

          eigenvalues
 #    :         136        137        138        139        140        141        142        143
 occ. :        2.000      2.000      2.000      2.000      2.000      2.000      2.000      2.000
 eps  :       -10.424    -10.410    -10.410    -10.391    -10.382    -10.205    -10.205    -10.202
 #    :         144        145        146        147        148        149        150        151
 occ. :        2.000      2.000      2.000      2.000      2.000      0.000      0.000      0.000
 eps  :       -10.064    -10.056     -9.990     -9.990     -9.870     -4.999     -4.909     -4.791
 #    :         152        153        154        155        156        157        158        159
 occ. :        0.000      0.000      0.000      0.000      0.000      0.000      0.000      0.000
 eps  :        -4.791     -4.725     -4.725     -4.617     -4.597     -4.314     -4.310     -4.260
 
 
 Mulliken/CM5 charges        n(s)   n(p)   n(d)
     1 C   0.08042  0.20314   1.088  2.831  0.000
     2 C   0.08042  0.20314   1.088  2.831  0.000
     3 C   0.08042  0.20314   1.088  2.831  0.000
     4 C   0.08042  0.20314   1.088  2.831  0.000
     5 C   0.08051  0.20334   1.088  2.831  0.000
     6 C   0.08051  0.20334   1.088  2.831  0.000
     7 C   0.08051  0.20334   1.088  2.831  0.000
     8 C   0.08051  0.20334   1.088  2.831  0.000
     9 N  -0.04514 -0.27338   1.138  3.907  0.000
    10 N  -0.04514 -0.27338   1.138  3.907  0.000
    11 N  -0.04514 -0.27338   1.138  3.907  0.000
    12 N  -0.04514 -0.27338   1.138  3.907  0.000
    13 N  -0.04514 -0.27338   1.138  3.907  0.000
    14 N  -0.04514 -0.27338   1.138  3.907  0.000
    15 N  -0.04514 -0.27338   1.138  3.907  0.000
    16 N  -0.04514 -0.27338   1.138  3.907  0.000
    17 N  -0.04519 -0.27331   1.138  3.907  0.000
    18 N  -0.04519 -0.27331   1.138  3.907  0.000
    19 N  -0.04519 -0.27331   1.138  3.907  0.000
    20 N  -0.04519 -0.27331   1.138  3.907  0.000
    21 N  -0.04519 -0.27331   1.138  3.907  0.000
    22 N  -0.04519 -0.27331   1.138  3.907  0.000
    23 N  -0.04519 -0.27331   1.138  3.907  0.000
    24 N  -0.04519 -0.27331   1.138  3.907  0.000
    25 C   0.23003  0.39470   1.065  2.705  0.000
    26 C   0.23003  0.39470   1.065  2.705  0.000
    27 C   0.23003  0.39470   1.065  2.705  0.000
    28 C   0.23003  0.39470   1.065  2.705  0.000
    29 C   0.23003  0.39470   1.065  2.705  0.000
    30 C   0.23003  0.39470   1.065  2.705  0.000
    31 C   0.23003  0.39470   1.065  2.705  0.000
    32 C   0.23003  0.39470   1.065  2.705  0.000
    33 O  -0.39170 -0.43182   1.733  4.659  0.000
    34 O  -0.39170 -0.43182   1.733  4.659  0.000
    35 O  -0.39170 -0.43182   1.733  4.659  0.000
    36 O  -0.39170 -0.43182   1.733  4.659  0.000
    37 O  -0.39170 -0.43182   1.733  4.659  0.000
    38 O  -0.39170 -0.43182   1.733  4.659  0.000
    39 O  -0.39170 -0.43182   1.733  4.659  0.000
    40 O  -0.39170 -0.43182   1.733  4.659  0.000
    41 C   0.03400  0.05662   1.073  2.893  0.000
    42 C   0.03400  0.05662   1.073  2.893  0.000
    43 C   0.03400  0.05662   1.073  2.893  0.000
    44 C   0.03400  0.05662   1.073  2.893  0.000
    45 C   0.03400  0.05662   1.073  2.893  0.000
    46 C   0.03400  0.05662   1.073  2.893  0.000
    47 C   0.03400  0.05662   1.073  2.893  0.000
    48 C   0.03400  0.05662   1.073  2.893  0.000
    49 H   0.03890  0.11598   0.961  0.000  0.000
    50 H   0.03890  0.11598   0.961  0.000  0.000
    51 H   0.03890  0.11598   0.961  0.000  0.000
    52 H   0.03890  0.11598   0.961  0.000  0.000
    53 H   0.03890  0.11598   0.961  0.000  0.000
    54 H   0.03890  0.11598   0.961  0.000  0.000
    55 H   0.03890  0.11598   0.961  0.000  0.000
    56 H   0.03890  0.11598   0.961  0.000  0.000
    57 H   0.07206  0.15848   0.928  0.000  0.000
    58 H   0.07206  0.15848   0.928  0.000  0.000
    59 H   0.07206  0.15848   0.928  0.000  0.000
    60 H   0.07206  0.15848   0.928  0.000  0.000
    61 H   0.07206  0.15848   0.928  0.000  0.000
    62 H   0.07206  0.15848   0.928  0.000  0.000
    63 H   0.07206  0.15848   0.928  0.000  0.000
    64 H   0.07206  0.15848   0.928  0.000  0.000
    65 C  -0.04538 -0.13711   1.083  2.963  0.000
    66 C  -0.04538 -0.13711   1.083  2.963  0.000
    67 C  -0.04538 -0.13711   1.083  2.963  0.000
    68 C  -0.04538 -0.13711   1.083  2.963  0.000
    69 H   0.03593  0.09379   0.964  0.000  0.000
    70 H   0.03593  0.09379   0.964  0.000  0.000
    71 H   0.03593  0.09379   0.964  0.000  0.000
    72 H   0.03593  0.09379   0.964  0.000  0.000
    73 H   0.03593  0.09379   0.964  0.000  0.000
    74 H   0.03593  0.09379   0.964  0.000  0.000
    75 H   0.03593  0.09379   0.964  0.000  0.000
    76 H   0.03593  0.09379   0.964  0.000  0.000
    77 C  -0.04538 -0.13712   1.083  2.963  0.000
    78 C  -0.04538 -0.13712   1.083  2.963  0.000
    79 C  -0.04538 -0.13712   1.083  2.963  0.000
    80 C  -0.04538 -0.13712   1.083  2.963  0.000
    81 H   0.03596  0.09384   0.964  0.000  0.000
    82 H   0.03596  0.09384   0.964  0.000  0.000
    83 H   0.03596  0.09384   0.964  0.000  0.000
    84 H   0.03596  0.09384   0.964  0.000  0.000
    85 H   0.03596  0.09384   0.964  0.000  0.000
    86 H   0.03596  0.09384   0.964  0.000  0.000
    87 H   0.03596  0.09384   0.964  0.000  0.000
    88 H   0.03596  0.09384   0.964  0.000  0.000
    89 NE  0.00063 -0.00817   2.000  6.000 -0.000
 
 Wiberg/Mayer (AO) data. WBOs > 0.1 written file <wbo>
 largest (>0.05) Wiberg bond orders for each atom
           total WBO             WBO to atom ...
     1  C   3.961    N   17 0.995    N   21 0.995    C   77 0.945    C    5 0.927
     2  C   3.961    N   18 0.995    N   22 0.995    C   78 0.945    C    6 0.927
     3  C   3.961    N   23 0.995    N   19 0.995    C   79 0.945    C    7 0.927
     4  C   3.961    N   20 0.995    N   24 0.995    C   80 0.945    C    8 0.927
     5  C   3.961    N   13 0.995    N    9 0.995    C   65 0.945    C    1 0.927
     6  C   3.961    N   10 0.995    N   14 0.995    C   66 0.945    C    2 0.927
     7  C   3.961    N   15 0.995    N   11 0.995    C   67 0.945    C    3 0.927
     8  C   3.961    N   12 0.995    N   16 0.995    C   68 0.945    C    4 0.927
     9  N   3.416    C   25 1.092    C    5 0.995    C   41 0.994    O   33 0.150
    10  N   3.416    C   26 1.092    C    6 0.995    C   42 0.994    O   34 0.150
    11  N   3.416    C   27 1.092    C    7 0.995    C   43 0.994    O   35 0.150
    12  N   3.416    C   28 1.092    C    8 0.995    C   44 0.994    O   36 0.150
    13  N   3.416    C   29 1.092    C    5 0.995    C   45 0.994    O   37 0.150
    14  N   3.416    C   30 1.092    C    6 0.995    C   46 0.994    O   38 0.150
    15  N   3.416    C   31 1.092    C    7 0.995    C   47 0.994    O   39 0.150
    16  N   3.416    C   32 1.092    C    8 0.995    C   48 0.994    O   40 0.150
    17  N   3.416    C   25 1.091    C    1 0.995    C   42 0.994    O   33 0.150
    18  N   3.416    C   26 1.091    C    2 0.995    C   43 0.994    O   34 0.150
    19  N   3.416    C   27 1.091    C    3 0.995    C   48 0.994    O   35 0.150
    20  N   3.416    C   28 1.091    C    4 0.995    C   45 0.994    O   36 0.150
    21  N   3.416    C   29 1.091    C    1 0.995    C   46 0.994    O   37 0.150
    22  N   3.416    C   30 1.091    C    2 0.995    C   47 0.994    O   38 0.150
    23  N   3.416    C   31 1.091    C    3 0.995    C   44 0.994    O   39 0.150
    24  N   3.416    C   32 1.091    C    4 0.995    C   41 0.994    O   40 0.150
    25  C   3.962    O   33 1.712    N    9 1.092    N   17 1.091
    26  C   3.962    O   34 1.712    N   10 1.092    N   18 1.091
    27  C   3.962    O   35 1.712    N   11 1.092    N   19 1.091
    28  C   3.962    O   36 1.712    N   12 1.092    N   20 1.091
    29  C   3.962    O   37 1.712    N   13 1.092    N   21 1.091
    30  C   3.962    O   38 1.712    N   14 1.092    N   22 1.091
    31  C   3.962    O   39 1.712    N   15 1.092    N   23 1.091
    32  C   3.962    O   40 1.712    N   16 1.092    N   24 1.091
    33  O   2.070    C   25 1.712    N    9 0.150    N   17 0.150
    34  O   2.070    C   26 1.712    N   10 0.150    N   18 0.150
    35  O   2.070    C   27 1.712    N   11 0.150    N   19 0.150
    36  O   2.070    C   28 1.712    N   12 0.150    N   20 0.150
    37  O   2.070    C   29 1.712    N   13 0.150    N   21 0.150
    38  O   2.070    C   30 1.712    N   14 0.150    N   22 0.150
    39  O   2.070    C   31 1.712    N   15 0.150    N   23 0.150
    40  O   2.070    C   32 1.712    N   16 0.150    N   24 0.150
    41  C   3.969    N   24 0.994    N    9 0.994    H   49 0.966    H   57 0.960
    42  C   3.969    N   17 0.994    N   10 0.994    H   50 0.966    H   58 0.960
    43  C   3.969    N   18 0.994    N   11 0.994    H   51 0.966    H   59 0.960
    44  C   3.969    N   23 0.994    N   12 0.994    H   52 0.966    H   60 0.960
    45  C   3.969    N   20 0.994    N   13 0.994    H   53 0.966    H   61 0.960
    46  C   3.969    N   21 0.994    N   14 0.994    H   54 0.966    H   62 0.960
    47  C   3.969    N   22 0.994    N   15 0.994    H   55 0.966    H   63 0.960
    48  C   3.969    N   19 0.994    N   16 0.994    H   56 0.966    H   64 0.960
    49  H   0.998    C   41 0.966
    50  H   0.998    C   42 0.966
    51  H   0.998    C   43 0.966
    52  H   0.998    C   44 0.966
    53  H   0.998    C   45 0.966
    54  H   0.998    C   46 0.966
    55  H   0.998    C   47 0.966
    56  H   0.998    C   48 0.966
    57  H   0.994    C   41 0.960
    58  H   0.994    C   42 0.960
    59  H   0.994    C   43 0.960
    60  H   0.994    C   44 0.960
    61  H   0.994    C   45 0.960
    62  H   0.994    C   46 0.960
    63  H   0.994    C   47 0.960
    64  H   0.994    C   48 0.960
    65  C   3.987    C   77 1.001    H   69 0.982    H   73 0.982    C    5 0.945
    66  C   3.987    C   78 1.001    H   70 0.982    H   74 0.982    C    6 0.945
    67  C   3.987    C   79 1.001    H   71 0.982    H   75 0.982    C    7 0.945
    68  C   3.987    C   80 1.001    H   76 0.982    H   72 0.982    C    8 0.945
    69  H   0.998    C   65 0.982
    70  H   0.998    C   66 0.982
    71  H   0.998    C   67 0.982
    72  H   0.998    C   68 0.982
    73  H   0.998    C   65 0.982
    74  H   0.998    C   66 0.982
    75  H   0.998    C   67 0.982
    76  H   0.998    C   68 0.982
    77  C   3.987    C   65 1.001    H   85 0.982    H   81 0.982    C    1 0.945
    78  C   3.987    C   66 1.001    H   86 0.982    H   82 0.982    C    2 0.945
    79  C   3.987    C   67 1.001    H   87 0.982    H   83 0.982    C    3 0.945
    80  C   3.987    C   68 1.001    H   88 0.982    H   84 0.982    C    4 0.945
    81  H   0.998    C   77 0.982
    82  H   0.998    C   78 0.982
    83  H   0.998    C   79 0.982
    84  H   0.998    C   80 0.982
    85  H   0.998    C   77 0.982
    86  H   0.998    C   78 0.982
    87  H   0.998    C   79 0.982
    88  H   0.998    C   80 0.982
    89  NE  0.000
 density
 
 cube file module (SG, 7/16)
 cube_pthr     :   0.005
 cube_step     :   0.400
 non-zero P (%):  25.840   nmat:    9176
 Grid Boundaries (x y z) :
   13.6353209508663        13.6353209508663        8.99485321799353     
  -13.6353209508663       -13.6353209508663       -8.99485321799353     
 Total # of points                214245
 writing density.cub
 N    (numint) : ******
cpu  time for cube    1 m  4.2 s
wall time for cube    1 m  3.1 s
 
molecular dipole:
                 x           y           z       tot (Debye)
 q only:       -0.000       0.000       0.000
   full:        0.000       0.000      -0.000       0.000
molecular quadrupole (traceless):
                xx          xy          yy          xz          yz          zz
 q only:       54.793       0.000      54.793      -0.000       0.000    -109.586
  q+dip:       61.519       0.000      61.519      -0.000       0.000    -123.038
   full:       64.049       0.000      64.049      -0.000       0.000    -128.098
 SCC converged in                     14  cycles
 
SCC energy    :    -176.0534900
rep           :       1.7094312
ES            :      -0.0194297
AES           :       0.0168094
disp          :      -0.1318618
XB            :       0.0000000
fix           :       0.0000000
total E       :    -174.4759207
atomizationE  :      23.5166224    14756.90
(atE without considerung molecular charge,
 total energy contains solvation terms)
H-L gap (eV)  :          4.8717
 
             =======================================
             |                                     |
             |    Approximate Normal Coordinate    |
             |   Rational Function Optimization    |
             |                                     |
             =======================================
Ref. for RF algo: F.Eckert, P.Pulay, H.-J.Werner
                  J.Comput.Chem. 18 (1997) 1473.
ANC idea implemented by S. Grimme in the 2000ers (unpublished)
restraining potential by S. Ehrlich.
dumping coords to <xtbopt.coord> and <xtbopt.log
 optlevel                         1
 Maxcycle                       445
 Maxmicro                        20
 Econv         1.000000000000000E-006
 Gconv         8.000000000000000E-004
 Maxdispl       1.00000000000000     
 Hlow          4.000000000000000E-003
 S6             20.0000000000000     
 Nvar                        261

generating ANC from model Hessian ...
 Shifting diagonal of input Hessian by   2.365014098980077E-003
 Lowest  eigenvalues of input Hessian
   -0.000000   -0.000000    0.000000    0.000000    0.000000    0.000000
    0.004000    0.004537    0.004791    0.005231    0.005944    0.006662
    0.006662    0.008450    0.008450    0.008776    0.008776    0.008848
 Highest eigenvalues
    2.436053    2.437674    2.440073    2.442171    2.442171    2.446602
 
cpu  time for ANC gen    0.41 s
wall time for ANC gen    0.26 s
................................................................................
.............................. CYCLE    1 ......................................
................................................................................
  q data taken from xtbrestart
  CAMM data taken from xtbrestart
   1   -176.0534900 -0.176053E+03  0.169E-05    4.87       0.0  T
   2   -176.0534900 -0.195826E-10  0.824E-06    4.87    1285.7  T
   3   -176.0534900 -0.349587E-11  0.441E-06    4.87    2403.1  T
speedup 10.22
cpu  time for SCC    2.91 s
wall time for SCC    0.28 s
speedup  6.42
cpu  time for grad    1.56 s
wall time for grad    0.24 s
 E :   -174.47592066  G :  0.088747    pred/act E change:  0.000D+00 -0.257D-10
Maxdispl :   0.1867   ||displ|| :   0.4030   Lambda : -0.183D-01
Largest |displ|/coords:  0.1867 (  22)  0.1570 (  68)  0.1539 (  26)
................................................................................
.............................. CYCLE    2 ......................................
................................................................................
   1   -176.1389892 -0.176139E+03  0.117E-01    5.00       0.0  T
   2   -176.1390829 -0.937477E-04  0.682E-02    4.98       1.0  T
   3   -176.1390609  0.220282E-04  0.343E-02    5.00       1.0  T
   4   -176.1391210 -0.600395E-04  0.517E-03    4.99       2.1  T
   5   -176.1391215 -0.585751E-06  0.276E-03    4.99       3.8  T
   6   -176.1391217 -0.183655E-06  0.886E-04    4.99      12.0  T
   7   -176.1391217 -0.116916E-07  0.268E-04    4.99      39.5  T
speedup  7.73
cpu  time for SCC    4.41 s
wall time for SCC    0.57 s
speedup  7.33
cpu  time for grad    1.52 s
wall time for grad    0.21 s
 E :   -174.48820985  G :  0.029695    pred/act E change:  0.000D+00 -0.123D-01
Maxdispl :   0.2340   ||displ|| :   0.3749   Lambda : -0.514D-02
Largest |displ|/coords:  0.2340 (  26)  0.2089 (  22)  0.1477 (  68)
................................................................................
.............................. CYCLE    3 ......................................
................................................................................
   1   -176.1806191 -0.176181E+03  0.103E-01    5.02       0.0  T
   2   -176.1807003 -0.812171E-04  0.572E-02    5.03       1.0  T
   3   -176.1806999  0.402296E-06  0.173E-02    5.04       1.0  T
   4   -176.1807138 -0.138811E-04  0.484E-03    5.04       2.2  T
   5   -176.1807143 -0.488244E-06  0.175E-03    5.04       6.1  T
   6   -176.1807143 -0.325810E-07  0.869E-04    5.04      12.2  T
   7   -176.1807143 -0.193833E-07  0.431E-04    5.04      24.6  T
speedup  8.37
cpu  time for SCC    3.12 s
wall time for SCC    0.37 s
speedup  6.16
cpu  time for grad    1.31 s
wall time for grad    0.21 s
 E :   -174.49134741  G :  0.014313    pred/act E change: -0.106D-01 -0.314D-02
Maxdispl :   0.1307   ||displ|| :   0.1713   Lambda : -0.621D-03
Largest |displ|/coords:  0.1307 (  26)  0.0966 (  22)  0.0412 (  68)
................................................................................
.............................. CYCLE    4 ......................................
................................................................................
   1   -176.1850725 -0.176185E+03  0.443E-02    5.02       0.0  T
   2   -176.1850938 -0.213363E-04  0.245E-02    5.03       1.0  T
   3   -176.1850923  0.152548E-05  0.946E-03    5.03       1.1  T
   4   -176.1850977 -0.538184E-05  0.260E-03    5.03       4.1  T
   5   -176.1850979 -0.225738E-06  0.974E-04    5.03      10.9  T
   6   -176.1850979 -0.274080E-07  0.407E-04    5.03      26.1  T
   7   -176.1850979 -0.306002E-08  0.205E-04    5.03      51.6  T
speedup  9.41
cpu  time for SCC    3.98 s
wall time for SCC    0.42 s
speedup  7.84
cpu  time for grad    1.67 s
wall time for grad    0.21 s
 E :   -174.49169906  G :  0.003145    pred/act E change: -0.293D-02 -0.352D-03
Maxdispl :   0.0298   ||displ|| :   0.0450   Lambda : -0.431D-04
Largest |displ|/coords:  0.0298 (  34)  0.0296 (  26)  0.0142 (  22)
................................................................................
.............................. CYCLE    5 ......................................
................................................................................
   1   -176.1843796 -0.176184E+03  0.125E-02    5.03       0.0  T
   2   -176.1843806 -0.105265E-05  0.696E-03    5.03       1.5  T
   3   -176.1843805  0.151350E-06  0.227E-03    5.03       4.7  T
   4   -176.1843808 -0.357584E-06  0.641E-04    5.03      16.5  T
   5   -176.1843808 -0.134813E-07  0.196E-04    5.03      54.1  T
   6   -176.1843808 -0.121915E-08  0.755E-05    5.03     140.3  T
speedup  8.16
cpu  time for SCC    3.02 s
wall time for SCC    0.37 s
speedup  6.93
cpu  time for grad    1.63 s
wall time for grad    0.23 s
 E :   -174.49172852  G :  0.000982    pred/act E change: -0.320D-03 -0.295D-04
Maxdispl :   0.0389   ||displ|| :   0.0429   Lambda : -0.196D-04
Largest |displ|/coords:  0.0389 (  34)  0.0170 (  26)  0.0040 (  22)
................................................................................
.............................. CYCLE    6 ......................................
................................................................................
   1   -176.1835731 -0.176184E+03  0.935E-03    5.03       0.0  T
   2   -176.1835735 -0.378229E-06  0.533E-03    5.03       2.0  T
   3   -176.1835734  0.655617E-07  0.137E-03    5.03       7.7  T
   4   -176.1835735 -0.134676E-06  0.416E-04    5.03      25.5  T
   5   -176.1835735 -0.642265E-08  0.127E-04    5.03      83.7  T
   6   -176.1835735 -0.636476E-09  0.447E-05    5.03     237.0  T
speedup  8.68
cpu  time for SCC    3.05 s
wall time for SCC    0.35 s
speedup  7.55
cpu  time for grad    1.69 s
wall time for grad    0.22 s
 E :   -174.49174108  G :  0.001023    pred/act E change: -0.216D-04 -0.126D-04
Maxdispl :   0.0221   ||displ|| :   0.0230   Lambda : -0.511D-05
Largest |displ|/coords:  0.0221 (  34)  0.0052 (  26)  0.0022 (  86)
................................................................................
.............................. CYCLE    7 ......................................
................................................................................
   1   -176.1834568 -0.176183E+03  0.406E-03    5.03       0.0  T
   2   -176.1834568 -0.246119E-07  0.239E-03    5.03       4.4  T
   3   -176.1834568  0.458218E-08  0.338E-04    5.03      31.3  T
   4   -176.1834568 -0.885800E-08  0.106E-04    5.03      99.5  T
   5   -176.1834568 -0.421011E-09  0.351E-05    5.03     301.9  T
speedup  8.88
cpu  time for SCC    2.84 s
wall time for SCC    0.32 s
speedup  9.09
cpu  time for grad    2.19 s
wall time for grad    0.24 s
 E :   -174.49174428  G :  0.000638    pred/act E change: -0.983D-05 -0.320D-05
Maxdispl :   0.0062   ||displ|| :   0.0067   Lambda : -0.903D-06
Largest |displ|/coords:  0.0062 (  34)  0.0017 (  22)  0.0012 (  86)
................................................................................
.............................. CYCLE    8 ......................................
................................................................................
   1   -176.1835892 -0.176184E+03  0.128E-03    5.03       0.0  T
   2   -176.1835892 -0.287687E-08  0.754E-04    5.03      14.1  T
   3   -176.1835892  0.584407E-09  0.132E-04    5.03      80.2  T
   4   -176.1835892 -0.102926E-08  0.339E-05    5.03     312.8  T
speedup  7.68
cpu  time for SCC    2.38 s
wall time for SCC    0.31 s
speedup  6.68
cpu  time for grad    1.62 s
wall time for grad    0.24 s
 E :   -174.49174480  G :  0.000179    pred/act E change: -0.256D-05 -0.520D-06
Maxdispl :   0.0002   ||displ|| :   0.0006   Lambda : -0.551D-07
Largest |displ|/coords:  0.0002 (  22)  0.0002 (  68)  0.0002 ( 124)
ancopt converged in          8 cycles
total energy gain (kcal):     -9.9298
================
 final structure:
================
    89
       -174.49174480
C          -3.15176940450233   -1.57135111115311    0.00000000444947
C           1.57135111055766   -3.15176940499867    0.00000000113453
C           3.15176940203851    1.57135111200621    0.00000000691608
C          -1.57135111031048    3.15176940398986    0.00000000211232
C          -3.52084217177349   -0.07777590018343    0.00000000407934
C           0.07777589763579   -3.52084217155871   -0.00000000057005
C           3.52084217104571    0.07777589770856    0.00000000441881
C          -0.07777590035598    3.52084217443134    0.00000000446761
N          -2.98070033184649    0.41604017136631   -1.22850199959766
N          -0.41604016100991   -2.98070033027194   -1.22850199489014
N           2.98070033349043   -0.41604017160045   -1.22850199895936
N           0.41604017033652    2.98070033966043    1.22850199759136
N          -2.98070033467952    0.41604017027964    1.22850199442855
N          -0.41604016563751   -2.98070033589442    1.22850199883693
N           2.98070033512662   -0.41604016102934    1.22850199285306
N           0.41604017303557    2.98070033213020   -1.22850199867940
N          -2.44382359557415   -1.75674357100546   -1.22852527408623
N           1.75674357243456   -2.44382359451279   -1.22852527052141
N           2.44382359709659    1.75674356562499   -1.22852527359517
N          -1.75674356595911    2.44382360132250    1.22852527159663
N          -2.44382360077137   -1.75674356496292    1.22852526978706
N           1.75674357213639   -2.44382360094105    1.22852527134220
N           2.44382360157210    1.75674356827967    1.22852526627838
N          -1.75674356631742    2.44382359466662   -1.22852527178362
C          -2.46647645335677   -0.60960755474123   -2.00378259139349
C           0.60960754209914   -2.46647644847552   -2.00378258898237
C           2.46647645106704    0.60960755734384   -2.00378259131362
C          -0.60960755825936    2.46647645598552    2.00378259925993
C          -2.46647644952716   -0.60960755519749    2.00378259655669
C           0.60960755133416   -2.46647645732767    2.00378259769228
C           2.46647645167294    0.60960754622299    2.00378260017574
C          -0.60960755085390    2.46647644653882   -2.00378258571220
O          -2.14481052466854   -0.53011974882326   -3.15329672670752
O           0.53011974831691   -2.14481051015465   -3.15329672086799
O           2.14481052106768    0.53011974977162   -3.15329672430807
O          -0.53011974761597    2.14481053157797    3.15329672981267
O          -2.14481052011097   -0.53011974942578    3.15329672480015
O           0.53011975196341   -2.14481052946948    3.15329672676419
O           2.14481052411091    0.53011974849642    3.15329672457955
O          -0.53011974216705    2.14481050876784   -3.15329671937962
C          -2.94816092479278    1.77966964737507   -1.67764485960108
C          -1.77966965846957   -2.94816092396697   -1.67764485987984
C           2.94816092391062   -1.77966964991376   -1.67764485986048
C           1.77966964875501    2.94816092870910    1.67764486550472
C          -2.94816092723390    1.77966965266944    1.67764486248142
C          -1.77966965111484   -2.94816092846295    1.67764486385439
C           2.94816092578539   -1.77966965921185    1.67764486341129
C           1.77966965242694    2.94816092621172   -1.67764485803933
H          -3.84023387801291    2.31812548584324   -1.33889974777481
H          -2.31812548322857   -3.84023388078005   -1.33889974251829
H           3.84023388005214   -2.31812548419218   -1.33889974741137
H           2.31812548714202    3.84023388038032    1.33889974872913
H          -3.84023388055136    2.31812548455679    1.33889974130044
H          -2.31812548498846   -3.84023388069953    1.33889974798547
H           3.84023388155244   -2.31812548516546    1.33889974444995
H           2.31812548504130    3.84023388087563   -1.33889974511666
H          -2.88667150740174    1.74255316170598   -2.77392059044470
H          -1.74255316411393   -2.88667151438977   -2.77392058896023
H           2.88667150933759   -1.74255316284387   -2.77392059083578
H           1.74255316520326    2.88667151429889    2.77392059147734
H          -2.88667151846504    1.74255316696096    2.77392058960739
H          -1.74255316473133   -2.88667151332560    2.77392059094805
H           2.88667151738913   -1.74255316596400    2.77392058957711
H           1.74255316264418    2.88667151164324   -2.77392058943436
C          -5.03042873275774   -0.44642081877813   -0.00000000230759
C           0.44642081901363   -5.03042873359123   -0.00000000228551
C           5.03042873336399    0.44642081982081   -0.00000000120297
C          -0.44642082156137    5.03042873412506   -0.00000000400767
H          -5.56227068918576   -0.11920855434756   -0.89180211344327
H           0.11920855019282   -5.56227068914928   -0.89180211256211
H           5.56227069054140    0.11920855529987   -0.89180211145127
H          -0.11920855978035    5.56227069757926    0.89180210526979
H          -5.56227069330935   -0.11920855351982    0.89180210710334
H           0.11920855755554   -5.56227069414538    0.89180210774075
H           5.56227069221628    0.11920855506629    0.89180210896134
H          -0.11920855527399    5.56227068903617   -0.89180211534337
C          -4.65932382407105   -1.94824636682877   -0.00000000042522
C           1.94824636700653   -4.65932382474347   -0.00000000746910
C           4.65932382380943    1.94824636775400   -0.00000000080965
C          -1.94824636872643    4.65932382305653   -0.00000000558845
H          -4.97754864645425   -2.48551137114115   -0.89180287456232
H           2.48551136685722   -4.97754864382078   -0.89180288520149
H           4.97754864503417    2.48551137121125   -0.89180287499736
H          -2.48551137479883    4.97754865030647    0.89180286670605
H          -4.97754864845654   -2.48551136950964    0.89180287478191
H           2.48551137409554   -4.97754865200523    0.89180286391221
H           4.97754864743255    2.48551137136004    0.89180287405060
H          -2.48551137121831    4.97754864052690   -0.89180288256949
NE         -0.00000000050186   -0.00000000032058    0.00000000766545
 
 Bond Distances (Angstroems)
 ---------------------------
C1-C5=1.5385         C1-N17=1.4300        C1-N21=1.4300        C1-C77=1.5540        C2-C6=1.5385         C2-N18=1.4300        
C2-N22=1.4300        C2-C78=1.5540        C3-C7=1.5385         C3-N19=1.4300        C3-N23=1.4300        C3-C79=1.5540        
C4-C8=1.5385         C4-N20=1.4300        C4-N24=1.4300        C4-C80=1.5540        C5-C1=1.5385         C5-N9=1.4300         
C5-N13=1.4300        C5-C65=1.5539        C6-C2=1.5385         C6-N10=1.4300        C6-N14=1.4300        C6-C66=1.5539        
C7-C3=1.5385         C7-N11=1.4300        C7-N15=1.4300        C7-C67=1.5539        C8-C4=1.5385         C8-N12=1.4300        
C8-N16=1.4300        C8-C68=1.5539        N9-C5=1.4300         N9-C25=1.3847        N9-C41=1.4361        N10-C6=1.4300        
N10-C26=1.3847       N10-C42=1.4361       N11-C7=1.4300        N11-C27=1.3847       N11-C43=1.4361       N12-C8=1.4300        
N12-C28=1.3847       N12-C44=1.4361       N13-C5=1.4300        N13-C29=1.3847       N13-C45=1.4361       N14-C6=1.4300        
N14-C30=1.3847       N14-C46=1.4361       N15-C7=1.4300        N15-C31=1.3847       N15-C47=1.4361       N16-C8=1.4300        
N16-C32=1.3847       N16-C48=1.4361       N17-C1=1.4300        N17-C25=1.3847       N17-C42=1.4361       N18-C2=1.4300        
N18-C26=1.3847       N18-C43=1.4361       N19-C3=1.4300        N19-C27=1.3847       N19-C48=1.4361       N20-C4=1.4300        
N20-C28=1.3847       N20-C45=1.4361       N21-C1=1.4300        N21-C29=1.3847       N21-C46=1.4361       N22-C2=1.4300        
N22-C30=1.3847       N22-C47=1.4361       N23-C3=1.4300        N23-C31=1.3847       N23-C44=1.4361       N24-C4=1.4300        
N24-C32=1.3847       N24-C41=1.4361       C25-N9=1.3847        C25-N17=1.3847       C25-O33=1.1963       C26-N10=1.3847       
C26-N18=1.3847       C26-O34=1.1963       C27-N11=1.3847       C27-N19=1.3847       C27-O35=1.1963       C28-N12=1.3847       
C28-N20=1.3847       C28-O36=1.1963       C29-N13=1.3847       C29-N21=1.3847       C29-O37=1.1963       C30-N14=1.3847       
C30-N22=1.3847       C30-O38=1.1963       C31-N15=1.3847       C31-N23=1.3847       C31-O39=1.1963       C32-N16=1.3847       
C32-N24=1.3847       C32-O40=1.1963       O33-C25=1.1963       O34-C26=1.1963       O35-C27=1.1963       O36-C28=1.1963       
O37-C29=1.1963       O38-C30=1.1963       O39-C31=1.1963       O40-C32=1.1963       C41-N9=1.4361        C41-N24=1.4361       
C41-H49=1.0957       C41-H57=1.0986       C42-N10=1.4361       C42-N17=1.4361       C42-H50=1.0957       C42-H58=1.0986       
C43-N11=1.4361       C43-N18=1.4361       C43-H51=1.0957       C43-H59=1.0986       C44-N12=1.4361       C44-N23=1.4361       
C44-H52=1.0957       C44-H60=1.0986       C45-N13=1.4361       C45-N20=1.4361       C45-H53=1.0957       C45-H61=1.0986       
C46-N14=1.4361       C46-N21=1.4361       C46-H54=1.0957       C46-H62=1.0986       C47-N15=1.4361       C47-N22=1.4361       
C47-H55=1.0957       C47-H63=1.0986       C48-N16=1.4361       C48-N19=1.4361       C48-H56=1.0957       C48-H64=1.0986       
H49-C41=1.0957       H50-C42=1.0957       H51-C43=1.0957       H52-C44=1.0957       H53-C45=1.0957       H54-C46=1.0957       
H55-C47=1.0957       H56-C48=1.0957       H57-C41=1.0986       H58-C42=1.0986       H59-C43=1.0986       H60-C44=1.0986       
H61-C45=1.0986       H62-C46=1.0986       H63-C47=1.0986       H64-C48=1.0986       C65-C5=1.5539        C65-H69=1.0887       
C65-H73=1.0887       C65-C77=1.5470       C66-C6=1.5539        C66-H70=1.0887       C66-H74=1.0887       C66-C78=1.5470       
C67-C7=1.5539        C67-H71=1.0887       C67-H75=1.0887       C67-C79=1.5470       C68-C8=1.5539        C68-H72=1.0887       
C68-H76=1.0887       C68-C80=1.5470       H69-C65=1.0887       H70-C66=1.0887       H71-C67=1.0887       H72-C68=1.0887       
H73-C65=1.0887       H74-C66=1.0887       H75-C67=1.0887       H76-C68=1.0887       C77-C1=1.5540        C77-C65=1.5470       
C77-H81=1.0887       C77-H85=1.0887       C78-C2=1.5540        C78-C66=1.5470       C78-H82=1.0887       C78-H86=1.0887       
C79-C3=1.5540        C79-C67=1.5470       C79-H83=1.0887       C79-H87=1.0887       C80-C4=1.5540        C80-C68=1.5470       
C80-H84=1.0887       C80-H88=1.0887       H81-C77=1.0887       H82-C78=1.0887       H83-C79=1.0887       H84-C80=1.0887       
H85-C77=1.0887       H86-C78=1.0887       H87-C79=1.0887       H88-C80=1.0887       
 C  H  Rav=1.0929 sigma=0.0044  Rmin=1.0887  Rmax=1.0986    32
 C  C  Rav=1.5483 sigma=0.0064  Rmin=1.5385  Rmax=1.5540    16
 N  C  Rav=1.4169 sigma=0.0229  Rmin=1.3847  Rmax=1.4361    48
 O  C  Rav=1.1963 sigma=0.0000  Rmin=1.1963  Rmax=1.1963     8
 
 selected bond angles (degree)
 --------------------
N17-C1-C5=104.16               N21-C1-C5=104.16               N21-C1-N17=118.44              C77-C1-C5= 90.16               
C77-C1-N17=116.67              C77-C1-N21=116.67              N18-C2-C6=104.16               N22-C2-C6=104.16               
N22-C2-N18=118.44              C78-C2-C6= 90.16               C78-C2-N18=116.67              C78-C2-N22=116.67              
N19-C3-C7=104.16               N23-C3-C7=104.16               N23-C3-N19=118.44              C79-C3-C7= 90.16               
C79-C3-N19=116.67              C79-C3-N23=116.67              N20-C4-C8=104.16               N24-C4-C8=104.16               
N24-C4-N20=118.44              C80-C4-C8= 90.16               C80-C4-N20=116.67              C80-C4-N24=116.67              
N9-C5-C1=104.16                N13-C5-C1=104.16               N13-C5-N9=118.43               C65-C5-C1= 90.16               
C65-C5-N9=116.67               C65-C5-N13=116.67              N10-C6-C2=104.16               N14-C6-C2=104.16               
N14-C6-N10=118.43              C66-C6-C2= 90.16               C66-C6-N10=116.67              C66-C6-N14=116.67              
N11-C7-C3=104.16               N15-C7-C3=104.16               N15-C7-N11=118.43              C67-C7-C3= 90.16               
C67-C7-N11=116.67              C67-C7-N15=116.67              N12-C8-C4=104.16               N16-C8-C4=104.16               
N16-C8-N12=118.43              C68-C8-C4= 90.16               C68-C8-N12=116.67              C68-C8-N16=116.67              
C25-N9-C5=111.44               C41-N9-C5=127.24               C41-N9-C25=121.32              C26-N10-C6=111.44              
C42-N10-C6=127.24              C42-N10-C26=121.32             
 
 selected dihedral angles (degree)
 ---------------------------------
N9-C5-C1-N17=  0.00           N9-C5-C1-N21=124.76           N9-C5-C1-C77=242.38           N13-C5-C1-N17=235.24          
N13-C5-C1-N21=  0.00          N13-C5-C1-C77=117.62          C65-C5-C1-N17=117.62          C65-C5-C1-N21=242.38          
C65-C5-C1-C77=  0.00          N10-C6-C2-N18=  0.00          N10-C6-C2-N22=124.76          N10-C6-C2-C78=242.38          
N14-C6-C2-N18=235.24          N14-C6-C2-N22=  0.00          N14-C6-C2-C78=117.62          C66-C6-C2-N18=117.62          
C66-C6-C2-N22=242.38          C66-C6-C2-C78=  0.00          N11-C7-C3-N19=  0.00          N11-C7-C3-N23=124.76          
N11-C7-C3-C79=242.38          N15-C7-C3-N19=235.24          N15-C7-C3-N23=  0.00          N15-C7-C3-C79=117.62          
C67-C7-C3-N19=117.62          C67-C7-C3-N23=242.38          C67-C7-C3-C79=  0.00          N12-C8-C4-N20=  0.00          
N12-C8-C4-N24=235.24          N12-C8-C4-C80=117.62          N16-C8-C4-N20=124.76          N16-C8-C4-N24=  0.00          
N16-C8-C4-C80=242.38          C68-C8-C4-N20=242.38          C68-C8-C4-N24=117.62          C68-C8-C4-C80=  0.00          
C25-N9-C5-C1=  6.02           C25-N9-C5-N13=121.07          C25-N9-C5-C65=268.55          C41-N9-C5-C1=185.50           
C41-N9-C5-N13=300.56          C41-N9-C5-C65= 88.04          C26-N10-C6-C2=  6.02          C26-N10-C6-N14=121.07         
C26-N10-C6-C66=268.55         C42-N10-C6-C2=185.50          C42-N10-C6-N14=300.56         C42-N10-C6-C66= 88.04         
 
 CMA Distance (Angstroems)
 ---------------------------
R(CMA):  0.0000
 
             =======================================
             |                                     |
             |        S C C  calculation           |
             |                                     |
             =======================================
 #proc     :                      1
 Ncao      :                    266
 Nao       :                    265
 Nel       :                    296
 T(el)     :   300.0
 intcut    :    25.0
 scfconv   :  0.100E-05
   qconv   :  0.200E-04
 intneglect:  0.100E-07
 broydamp  :      0.400
 Nshell    :                    147
 iter      E             dE          RMSdq      gap      omega  full diag
   1   -176.1835892 -0.176184E+03  0.120E-05    5.03       0.0  T
   2   -176.1835892 -0.449063E-11  0.603E-06    5.03    1757.1  T
   3   -176.1835892 -0.278533E-11  0.399E-06    5.03    2654.8  T
speedup  7.18
cpu  time for SCC    1.86 s
wall time for SCC    0.26 s

          eigenvalues
 #    :         136        137        138        139        140        141        142        143
 occ. :        2.000      2.000      2.000      2.000      2.000      2.000      2.000      2.000
 eps  :       -10.404    -10.377    -10.377    -10.367    -10.340    -10.219    -10.156    -10.156
 #    :         144        145        146        147        148        149        150        151
 occ. :        2.000      2.000      2.000      2.000      2.000      0.000      0.000      0.000
 eps  :       -10.066     -9.979     -9.951     -9.951     -9.795     -4.765     -4.684     -4.551
 #    :         152        153        154        155        156        157        158        159
 occ. :        0.000      0.000      0.000      0.000      0.000      0.000      0.000      0.000
 eps  :        -4.551     -4.509     -4.509     -4.381     -4.381     -4.270     -4.260     -4.209
 
 
 Mulliken/CM5 charges        n(s)   n(p)   n(d)
     1 C   0.08149  0.20699   1.080  2.838  0.000
     2 C   0.08149  0.20699   1.080  2.838  0.000
     3 C   0.08149  0.20699   1.080  2.838  0.000
     4 C   0.08149  0.20699   1.080  2.838  0.000
     5 C   0.08149  0.20700   1.080  2.838  0.000
     6 C   0.08149  0.20700   1.080  2.838  0.000
     7 C   0.08149  0.20700   1.080  2.838  0.000
     8 C   0.08149  0.20700   1.080  2.838  0.000
     9 N  -0.04218 -0.27739   1.130  3.912  0.000
    10 N  -0.04218 -0.27739   1.130  3.912  0.000
    11 N  -0.04218 -0.27739   1.130  3.912  0.000
    12 N  -0.04218 -0.27739   1.130  3.912  0.000
    13 N  -0.04218 -0.27739   1.130  3.912  0.000
    14 N  -0.04218 -0.27739   1.130  3.912  0.000
    15 N  -0.04218 -0.27739   1.130  3.912  0.000
    16 N  -0.04218 -0.27739   1.130  3.912  0.000
    17 N  -0.04218 -0.27739   1.130  3.912  0.000
    18 N  -0.04218 -0.27739   1.130  3.912  0.000
    19 N  -0.04218 -0.27739   1.130  3.912  0.000
    20 N  -0.04218 -0.27739   1.130  3.912  0.000
    21 N  -0.04218 -0.27739   1.130  3.912  0.000
    22 N  -0.04218 -0.27739   1.130  3.912  0.000
    23 N  -0.04218 -0.27739   1.130  3.912  0.000
    24 N  -0.04218 -0.27739   1.130  3.912  0.000
    25 C   0.23387  0.40516   1.056  2.710  0.000
    26 C   0.23387  0.40516   1.056  2.710  0.000
    27 C   0.23387  0.40516   1.056  2.710  0.000
    28 C   0.23387  0.40516   1.056  2.710  0.000
    29 C   0.23387  0.40516   1.056  2.710  0.000
    30 C   0.23387  0.40516   1.056  2.710  0.000
    31 C   0.23387  0.40516   1.056  2.710  0.000
    32 C   0.23387  0.40516   1.056  2.710  0.000
    33 O  -0.39961 -0.44172   1.725  4.674  0.000
    34 O  -0.39961 -0.44172   1.725  4.674  0.000
    35 O  -0.39961 -0.44172   1.725  4.674  0.000
    36 O  -0.39961 -0.44172   1.725  4.674  0.000
    37 O  -0.39961 -0.44172   1.725  4.674  0.000
    38 O  -0.39961 -0.44172   1.725  4.674  0.000
    39 O  -0.39961 -0.44172   1.725  4.674  0.000
    40 O  -0.39961 -0.44172   1.725  4.674  0.000
    41 C   0.03324  0.06009   1.071  2.895  0.000
    42 C   0.03324  0.06009   1.071  2.895  0.000
    43 C   0.03324  0.06009   1.071  2.895  0.000
    44 C   0.03324  0.06009   1.071  2.895  0.000
    45 C   0.03324  0.06009   1.071  2.895  0.000
    46 C   0.03324  0.06009   1.071  2.895  0.000
    47 C   0.03324  0.06009   1.071  2.895  0.000
    48 C   0.03324  0.06009   1.071  2.895  0.000
    49 H   0.03816  0.11501   0.962  0.000  0.000
    50 H   0.03816  0.11501   0.962  0.000  0.000
    51 H   0.03816  0.11501   0.962  0.000  0.000
    52 H   0.03816  0.11501   0.962  0.000  0.000
    53 H   0.03816  0.11501   0.962  0.000  0.000
    54 H   0.03816  0.11501   0.962  0.000  0.000
    55 H   0.03816  0.11501   0.962  0.000  0.000
    56 H   0.03816  0.11501   0.962  0.000  0.000
    57 H   0.07255  0.16092   0.927  0.000  0.000
    58 H   0.07255  0.16092   0.927  0.000  0.000
    59 H   0.07255  0.16092   0.927  0.000  0.000
    60 H   0.07255  0.16092   0.927  0.000  0.000
    61 H   0.07255  0.16092   0.927  0.000  0.000
    62 H   0.07255  0.16092   0.927  0.000  0.000
    63 H   0.07255  0.16092   0.927  0.000  0.000
    64 H   0.07255  0.16092   0.927  0.000  0.000
    65 C  -0.04618 -0.13879   1.077  2.970  0.000
    66 C  -0.04618 -0.13879   1.077  2.970  0.000
    67 C  -0.04618 -0.13879   1.077  2.970  0.000
    68 C  -0.04618 -0.13879   1.077  2.970  0.000
    69 H   0.03536  0.09411   0.965  0.000  0.000
    70 H   0.03536  0.09411   0.965  0.000  0.000
    71 H   0.03536  0.09411   0.965  0.000  0.000
    72 H   0.03536  0.09411   0.965  0.000  0.000
    73 H   0.03536  0.09411   0.965  0.000  0.000
    74 H   0.03536  0.09411   0.965  0.000  0.000
    75 H   0.03536  0.09411   0.965  0.000  0.000
    76 H   0.03536  0.09411   0.965  0.000  0.000
    77 C  -0.04618 -0.13879   1.077  2.970  0.000
    78 C  -0.04618 -0.13879   1.077  2.970  0.000
    79 C  -0.04618 -0.13879   1.077  2.970  0.000
    80 C  -0.04618 -0.13879   1.077  2.970  0.000
    81 H   0.03536  0.09412   0.965  0.000  0.000
    82 H   0.03536  0.09412   0.965  0.000  0.000
    83 H   0.03536  0.09412   0.965  0.000  0.000
    84 H   0.03536  0.09412   0.965  0.000  0.000
    85 H   0.03536  0.09412   0.965  0.000  0.000
    86 H   0.03536  0.09412   0.965  0.000  0.000
    87 H   0.03536  0.09412   0.965  0.000  0.000
    88 H   0.03536  0.09412   0.965  0.000  0.000
    89 NE  0.00075 -0.00895   2.000  6.000 -0.000
 
 Wiberg/Mayer (AO) data. WBOs > 0.1 written file <wbo>
 largest (>0.05) Wiberg bond orders for each atom
           total WBO             WBO to atom ...
     1  C   3.963    N   21 0.993    N   17 0.993    C   77 0.946    C    5 0.932
     2  C   3.963    N   22 0.993    N   18 0.993    C   78 0.946    C    6 0.932
     3  C   3.963    N   23 0.993    N   19 0.993    C   79 0.946    C    7 0.932
     4  C   3.963    N   20 0.993    N   24 0.993    C   80 0.946    C    8 0.932
     5  C   3.963    N   13 0.993    N    9 0.993    C   65 0.946    C    1 0.932
     6  C   3.963    N   10 0.993    N   14 0.993    C   66 0.946    C    2 0.932
     7  C   3.963    N   15 0.993    N   11 0.993    C   67 0.946    C    3 0.932
     8  C   3.963    N   12 0.993    N   16 0.993    C   68 0.946    C    4 0.932
     9  N   3.419    C   25 1.097    C   41 0.996    C    5 0.993    O   33 0.149
    10  N   3.419    C   26 1.097    C   42 0.996    C    6 0.993    O   34 0.149
    11  N   3.419    C   27 1.097    C   43 0.996    C    7 0.993    O   35 0.149
    12  N   3.419    C   28 1.097    C   44 0.996    C    8 0.993    O   36 0.149
    13  N   3.419    C   29 1.097    C   45 0.996    C    5 0.993    O   37 0.149
    14  N   3.419    C   30 1.097    C   46 0.996    C    6 0.993    O   38 0.149
    15  N   3.419    C   31 1.097    C   47 0.996    C    7 0.993    O   39 0.149
    16  N   3.419    C   32 1.097    C   48 0.996    C    8 0.993    O   40 0.149
    17  N   3.419    C   25 1.097    C   42 0.996    C    1 0.993    O   33 0.149
    18  N   3.419    C   26 1.097    C   43 0.996    C    2 0.993    O   34 0.149
    19  N   3.419    C   27 1.097    C   48 0.996    C    3 0.993    O   35 0.149
    20  N   3.419    C   28 1.097    C   45 0.996    C    4 0.993    O   36 0.149
    21  N   3.419    C   29 1.097    C   46 0.996    C    1 0.993    O   37 0.149
    22  N   3.419    C   30 1.097    C   47 0.996    C    2 0.993    O   38 0.149
    23  N   3.419    C   31 1.097    C   44 0.996    C    3 0.993    O   39 0.149
    24  N   3.419    C   32 1.097    C   41 0.996    C    4 0.993    O   40 0.149
    25  C   3.965    O   33 1.703    N    9 1.097    N   17 1.097
    26  C   3.965    O   34 1.703    N   10 1.097    N   18 1.097
    27  C   3.965    O   35 1.703    N   11 1.097    N   19 1.097
    28  C   3.965    O   36 1.703    N   12 1.097    N   20 1.097
    29  C   3.965    O   37 1.703    N   13 1.097    N   21 1.097
    30  C   3.965    O   38 1.703    N   14 1.097    N   22 1.097
    31  C   3.965    O   39 1.703    N   15 1.097    N   23 1.097
    32  C   3.965    O   40 1.703    N   16 1.097    N   24 1.097
    33  O   2.063    C   25 1.703    N    9 0.149    N   17 0.149
    34  O   2.063    C   26 1.703    N   10 0.149    N   18 0.149
    35  O   2.063    C   27 1.703    N   11 0.149    N   19 0.149
    36  O   2.063    C   28 1.703    N   12 0.149    N   20 0.149
    37  O   2.063    C   29 1.703    N   13 0.149    N   21 0.149
    38  O   2.063    C   30 1.703    N   14 0.149    N   22 0.149
    39  O   2.063    C   31 1.703    N   15 0.149    N   23 0.149
    40  O   2.063    C   32 1.703    N   16 0.149    N   24 0.149
    41  C   3.969    N    9 0.996    N   24 0.996    H   49 0.965    H   57 0.958
    42  C   3.969    N   10 0.996    N   17 0.996    H   50 0.965    H   58 0.958
    43  C   3.969    N   11 0.996    N   18 0.996    H   51 0.965    H   59 0.958
    44  C   3.969    N   12 0.996    N   23 0.996    H   52 0.965    H   60 0.958
    45  C   3.969    N   13 0.996    N   20 0.996    H   53 0.965    H   61 0.958
    46  C   3.969    N   14 0.996    N   21 0.996    H   54 0.965    H   62 0.958
    47  C   3.969    N   15 0.996    N   22 0.996    H   55 0.965    H   63 0.958
    48  C   3.969    N   16 0.996    N   19 0.996    H   56 0.965    H   64 0.958
    49  H   0.998    C   41 0.965
    50  H   0.998    C   42 0.965
    51  H   0.998    C   43 0.965
    52  H   0.998    C   44 0.965
    53  H   0.998    C   45 0.965
    54  H   0.998    C   46 0.965
    55  H   0.998    C   47 0.965
    56  H   0.998    C   48 0.965
    57  H   0.994    C   41 0.958
    58  H   0.994    C   42 0.958
    59  H   0.994    C   43 0.958
    60  H   0.994    C   44 0.958
    61  H   0.994    C   45 0.958
    62  H   0.994    C   46 0.958
    63  H   0.994    C   47 0.958
    64  H   0.994    C   48 0.958
    65  C   3.988    C   77 1.002    H   69 0.981    H   73 0.981    C    5 0.946
    66  C   3.988    C   78 1.002    H   70 0.981    H   74 0.981    C    6 0.946
    67  C   3.988    C   79 1.002    H   71 0.981    H   75 0.981    C    7 0.946
    68  C   3.988    C   80 1.002    H   76 0.981    H   72 0.981    C    8 0.946
    69  H   0.998    C   65 0.981
    70  H   0.998    C   66 0.981
    71  H   0.998    C   67 0.981
    72  H   0.998    C   68 0.981
    73  H   0.998    C   65 0.981
    74  H   0.998    C   66 0.981
    75  H   0.998    C   67 0.981
    76  H   0.998    C   68 0.981
    77  C   3.988    C   65 1.002    H   81 0.981    H   85 0.981    C    1 0.946
    78  C   3.988    C   66 1.002    H   82 0.981    H   86 0.981    C    2 0.946
    79  C   3.988    C   67 1.002    H   83 0.981    H   87 0.981    C    3 0.946
    80  C   3.988    C   68 1.002    H   88 0.981    H   84 0.981    C    4 0.946
    81  H   0.998    C   77 0.981
    82  H   0.998    C   78 0.981
    83  H   0.998    C   79 0.981
    84  H   0.998    C   80 0.981
    85  H   0.998    C   77 0.981
    86  H   0.998    C   78 0.981
    87  H   0.998    C   79 0.981
    88  H   0.998    C   80 0.981
    89  NE  0.000
 density
 
 cube file module (SG, 7/16)
 cube_pthr     :   0.005
 cube_step     :   0.400
 non-zero P (%):  26.133   nmat:    9280
 Grid Boundaries (x y z) :
   13.5111672640965        13.5111672742311        8.95886665616105     
  -13.5111672661621       -13.5111672677420       -8.95886665029317     
 Total # of points                208080
 writing density.cub
 N    (numint) : ******
cpu  time for cube    1 m  1.4 s
wall time for cube    1 m  0.2 s
 
molecular dipole:
                 x           y           z       tot (Debye)
 q only:       -0.000      -0.000       0.000
   full:       -0.000      -0.000       0.000       0.000
molecular quadrupole (traceless):
                xx          xy          yy          xz          yz          zz
 q only:       54.098       0.000      54.098       0.000      -0.000    -108.197
  q+dip:       61.410       0.000      61.410       0.000      -0.000    -122.819
   full:       63.947       0.000      63.947       0.000      -0.000    -127.894
 SCC converged in                      3  cycles
 
SCC energy    :    -176.1835892
rep           :       1.8261302
ES            :      -0.0231496
AES           :       0.0130996
disp          :      -0.1342859
XB            :       0.0000000
fix           :       0.0000000
total E       :    -174.4917448
atomizationE  :      23.5324465    14766.83
(atE without considerung molecular charge,
 total energy contains solvation terms)
H-L gap (eV)  :          5.0298
 !!!!!!!!!!!!!!!!!!!!!!!!!!!!!!!!!!!
 ! Note: the input coordinates are !
 ! NOT overwritten. The optimized  !
 ! ones are on file <xtbopt.coord> !
 ! (or on <xtbopt.xyz> if it was a !
 ! xyz file)                       !
 !!!!!!!!!!!!!!!!!!!!!!!!!!!!!!!!!!!
 
speedup  1.32
cpu  time for all    2 m 52.2 s
wall time for all    2 m 10.3 s
