 
        ______________________________________
       |                                      |
       |           ==================         |
       |                 x T B                |
       |           ==================         |
       |               S. Grimme              |
       |        Universitaet Bonn, MCTC       |
       |         2015-18, Version 5.0         |
       |      Sat Jan 20 11:00:33 CET 2018    |
       |______________________________________|
 
        This code comes without any warranty
        for non-commercial, academia use only.
        Cite GFN-xTB work as:
        S. Grimme, C. Bannwarth, P. Shushkov
        JCTC, 13 (2017) 1989-2009
        for GFN2:
        C. Bannwarth, S. Ehlert, S. Grimme
        to be published.
        sTDA-xTB:
        S. Grimme  &  C. Bannwarth, JCP 145 (2016) 054103
        in the mass-spec context additionally:
        V. Asgeirsson, C.Bauer, S. Grimme, Chem. Sci. 8 (2017) 4879
 
        with help from
        P. Shushkov, G. Brandenburg, S. Dohm, J. Pisarek,
        F. März, M. Checinski, S. Ehrlich, S. Spicher, 
        P. Pracht, E. Caldeweyher, S. Ehlert, and C. Bannwarth.
 
        usage        :
        xtb <coord_file> [options]
        where <coord_file> is a valid file of TM)
        (*coord, Bohr) or xmol (*xyz, Angstroem)
        format.

        options:
        -chrg <int>   : molecular charge
        -uhf  <int>   : # of unpaired electrons(=2*S)
        -nox          : skip second, extended part in sTDA-xTB
        -pop          : do population analysis
                      : (default for -nox)
        -mowr <real>  : cut MO write above (def.3 Eh)
        -molden       : write formatted molden file
        -parx <file>  : read parameters for sTDA-xTB
                        calc (def:~/.param_stda2.xtb)
        -parv <file>  : read parameters for vTB part in
                        sTDA-xTB (def: ~/.param_stda1.xtb)
        -xtemp <real> : el. temp for xTB (def. 0 K)
        -etemp <real> : el. temp for GFN (def. 300 K)
        -fod          : do a xTB calc. of the FOD
                        and write molden.input file 
                        with appropriate occupations
                        for plotting. Def. T=12500 K
 
        -gfn          : use GFN-xTB
        -grad         : GFN-xTB gradient
        -acc <real>   : GFN-xTB accuracy (def. 1.0)
        -opt [level]  : optimize at GFN-xTB
                      : level=crude,vloose,loose,
                      :       tight,vtight
        -hess         : compute Hessian at GFN-xTB
        -ohess        : optimize and compute Hessian
        -omd          : optimize and do MD
        -siman        : conformational search
        -screen       : opt. loop over ensemble
        -gmd          : annealed MD for GMD procedure
        -modef        : vib mode following
        -gbsa [string1] [string2]
                        use GBSA implicit solvent
                        for solvent [string1] and
                        solvation state [string2]=
                        reference, bar1M (default=1M)
        additional GFN/opt/MD/siman options read from
        $XTBHOME/.xtbrc or $set in coordinate file
 
       spin and charge state information can be on:
       <.CHRG> (charge) and <.UHF> (=nalpha-nbeta)
       -uhf and -chrg override the file info.
       useful machine settings:
       setenv MKL_NUM_THREADS <NCORE_ON_YOUR_MACHINE>
       setenv OMP_STACKSIZE 500m
       limit stacksize unlimited
 
       total energies in Eh, gaps/HL energies in eV
       please read REVISION and HOWTO files carefully
 =============================
  # OMP threads =                     1
 =============================
 
 xtbhome directory:/Applications/xtb/
 
 argument                      1 :-gmd
 
 number of atoms            :    89
 number of electrons        :   296
 charge                     :  0
 spin                       : 0.0
 first test random number   :  0.8742
 
 
KAB for pair M(3d)-M(3d) :  1.1000
KAB for pair M(4d)-M(4d) :  1.2000
KAB for pair M(5d)-M(5d) :  1.2000
 -----------------------------------------
  G F N (Geometry, Frequency, Non-covalent)
        parametrization, version                     2
 /Applications/xtb/.param_gfn2.xtb
 -----------------------------------------
      method parameters     
 k(s)        :  1.8500
 k(p)        :  2.2500
 k(d)        :  2.0000
 k(f)        :  0.0000
 alphaj      :  1.0000
 kEN (H0ij)  : -2.3620
 D3 a1       :  0.6900
 D3 a2       :  4.0530
 D3 s8       :  2.0000
 D3atm       :  1.0000
 AESdamp     :  5.5000
 AESrad      :  1.9230
 expscalexp  : -0.2500
 
     -------------------------
     ! NO SOLVENT MODEL USED !
     -------------------------
 
 doing EN charges ...
 sum q : -0.1554312D-14
 point charge moment (au)
     X       Y       Z   
   0.0000   0.0000  -0.0000  total (Debye):    0.000
 
            Z      q(EN)   CN      Cart. coordinates
     1  C   4.0    0.19    4.57    -5.95598    -2.96942     0.00000
     2  C   4.0    0.19    4.57     2.96942    -5.95598     0.00000
     3  C   4.0    0.19    4.57     5.95598     2.96942     0.00000
     4  C   4.0    0.19    4.57    -2.96942     5.95598     0.00000
     5  C   4.0    0.19    4.57    -6.65343    -0.14698     0.00000
     6  C   4.0    0.19    4.57     0.14698    -6.65343    -0.00000
     7  C   4.0    0.19    4.57     6.65343     0.14698     0.00000
     8  C   4.0    0.19    4.57    -0.14698     6.65343     0.00000
     9  N   5.0   -0.21    3.27    -5.63271     0.78620    -2.32153
    10  N   5.0   -0.21    3.27    -0.78620    -5.63271    -2.32153
    11  N   5.0   -0.21    3.27     5.63271    -0.78620    -2.32153
    12  N   5.0   -0.21    3.27     0.78620     5.63271     2.32153
    13  N   5.0   -0.21    3.27    -5.63271     0.78620     2.32153
    14  N   5.0   -0.21    3.27    -0.78620    -5.63271     2.32153
    15  N   5.0   -0.21    3.27     5.63271    -0.78620     2.32153
    16  N   5.0   -0.21    3.27     0.78620     5.63271    -2.32153
    17  N   5.0   -0.21    3.27    -4.61816    -3.31976    -2.32158
    18  N   5.0   -0.21    3.27     3.31976    -4.61816    -2.32158
    19  N   5.0   -0.21    3.27     4.61816     3.31976    -2.32158
    20  N   5.0   -0.21    3.27    -3.31976     4.61816     2.32158
    21  N   5.0   -0.21    3.27    -4.61816    -3.31976     2.32158
    22  N   5.0   -0.21    3.27     3.31976    -4.61816     2.32158
    23  N   5.0   -0.21    3.27     4.61816     3.31976     2.32158
    24  N   5.0   -0.21    3.27    -3.31976     4.61816    -2.32158
    25  C   4.0    0.47    3.30    -4.66096    -1.15199    -3.78660
    26  C   4.0    0.47    3.30     1.15199    -4.66096    -3.78660
    27  C   4.0    0.47    3.30     4.66096     1.15199    -3.78660
    28  C   4.0    0.47    3.30    -1.15199     4.66096     3.78660
    29  C   4.0    0.47    3.30    -4.66096    -1.15199     3.78660
    30  C   4.0    0.47    3.30     1.15199    -4.66096     3.78660
    31  C   4.0    0.47    3.30     4.66096     1.15199     3.78660
    32  C   4.0    0.47    3.30    -1.15199     4.66096    -3.78660
    33  O   6.0   -0.36    1.07    -4.05310    -1.00178    -5.95887
    34  O   6.0   -0.36    1.07     1.00178    -4.05310    -5.95887
    35  O   6.0   -0.36    1.07     4.05310     1.00178    -5.95887
    36  O   6.0   -0.36    1.07    -1.00178     4.05310     5.95887
    37  O   6.0   -0.36    1.07    -4.05310    -1.00178     5.95887
    38  O   6.0   -0.36    1.07     1.00178    -4.05310     5.95887
    39  O   6.0   -0.36    1.07     4.05310     1.00178     5.95887
    40  O   6.0   -0.36    1.07    -1.00178     4.05310    -5.95887
    41  C   4.0    0.25    4.15    -5.57122     3.36309    -3.17029
    42  C   4.0    0.25    4.15    -3.36309    -5.57122    -3.17029
    43  C   4.0    0.25    4.15     5.57122    -3.36309    -3.17029
    44  C   4.0    0.25    4.15     3.36309     5.57122     3.17029
    45  C   4.0    0.25    4.15    -5.57122     3.36309     3.17029
    46  C   4.0    0.25    4.15    -3.36309    -5.57122     3.17029
    47  C   4.0    0.25    4.15     5.57122    -3.36309     3.17029
    48  C   4.0    0.25    4.15     3.36309     5.57122    -3.17029
    49  H   1.0   -0.05    1.00    -7.25699     4.38062    -2.53015
    50  H   1.0   -0.05    1.00    -4.38062    -7.25699    -2.53015
    51  H   1.0   -0.05    1.00     7.25699    -4.38062    -2.53015
    52  H   1.0   -0.05    1.00     4.38062     7.25699     2.53015
    53  H   1.0   -0.05    1.00    -7.25699     4.38062     2.53015
    54  H   1.0   -0.05    1.00    -4.38062    -7.25699     2.53015
    55  H   1.0   -0.05    1.00     7.25699    -4.38062     2.53015
    56  H   1.0   -0.05    1.00     4.38062     7.25699    -2.53015
    57  H   1.0   -0.05    1.01    -5.45502     3.29295    -5.24195
    58  H   1.0   -0.05    1.01    -3.29295    -5.45502    -5.24195
    59  H   1.0   -0.05    1.01     5.45502    -3.29295    -5.24195
    60  H   1.0   -0.05    1.01     3.29295     5.45502     5.24195
    61  H   1.0   -0.05    1.01    -5.45502     3.29295     5.24195
    62  H   1.0   -0.05    1.01    -3.29295    -5.45502     5.24195
    63  H   1.0   -0.05    1.01     5.45502    -3.29295     5.24195
    64  H   1.0   -0.05    1.01     3.29295     5.45502    -5.24195
    65  C   4.0    0.11    4.23    -9.50613    -0.84361    -0.00000
    66  C   4.0    0.11    4.23     0.84361    -9.50613    -0.00000
    67  C   4.0    0.11    4.23     9.50613     0.84361    -0.00000
    68  C   4.0    0.11    4.23    -0.84361     9.50613    -0.00000
    69  H   1.0   -0.06    1.00   -10.51117    -0.22527    -1.68526
    70  H   1.0   -0.06    1.00     0.22527   -10.51117    -1.68526
    71  H   1.0   -0.06    1.00    10.51117     0.22527    -1.68526
    72  H   1.0   -0.06    1.00    -0.22527    10.51117     1.68526
    73  H   1.0   -0.06    1.00   -10.51117    -0.22527     1.68526
    74  H   1.0   -0.06    1.00     0.22527   -10.51117     1.68526
    75  H   1.0   -0.06    1.00    10.51117     0.22527     1.68526
    76  H   1.0   -0.06    1.00    -0.22527    10.51117    -1.68526
    77  C   4.0    0.11    4.23    -8.80485    -3.68165    -0.00000
    78  C   4.0    0.11    4.23     3.68165    -8.80485    -0.00000
    79  C   4.0    0.11    4.23     8.80485     3.68165    -0.00000
    80  C   4.0    0.11    4.23    -3.68165     8.80485    -0.00000
    81  H   1.0   -0.06    1.00    -9.40620    -4.69694    -1.68526
    82  H   1.0   -0.06    1.00     4.69694    -9.40620    -1.68526
    83  H   1.0   -0.06    1.00     9.40620     4.69694    -1.68526
    84  H   1.0   -0.06    1.00    -4.69694     9.40620     1.68526
    85  H   1.0   -0.06    1.00    -9.40620    -4.69694     1.68526
    86  H   1.0   -0.06    1.00     4.69694    -9.40620     1.68526
    87  H   1.0   -0.06    1.00     9.40620     4.69694     1.68526
    88  H   1.0   -0.06    1.00    -4.69694     9.40620    -1.68526
    89  NE  8.0   -0.07    0.04    -0.00000    -0.00000     0.00000
 
  Z AO/shell   Hii/eV     exponent
  1     Sat Jan 20 17:55:17 CET 2018    EN: 2.200 GAM: 0.531  GM3:-0.4370
     1s    -10.248275    1.266496
  6     Sat Jan 20 17:55:17 CET 2018    EN: 2.550 GAM: 0.417  GM3:-0.0654
     2s    -15.292509    2.030071
     2p    -10.408465    1.801676
  7     Sat Jan 20 17:55:17 CET 2018    EN: 3.040 GAM: 0.444  GM3:-0.1301
     2s    -16.687725    2.226550
     2p    -13.175143    1.981921
  8     Sat Jan 20 17:55:17 CET 2018    EN: 3.440 GAM: 0.468  GM3: 0.0937
     2s    -20.924998    2.442614
     2p    -15.243501    2.233841
 10     Sun Jan 21 09:56:42 CET 2018    EN: 4.500 GAM: 1.109  GM3: 0.2000
     2s    -25.000000    2.800000
     2p    -16.000000    2.600000
     3d     -4.162395    2.600000
 no old-style atom pair restraing (fixing) potential
 
 molecular fragmentation (1/2 indicates fragments):
11111111111111111111111111111111111111111111111111111111111111111111111111111111
111111112
# atoms in fragment 1/2:    88     1
 fragment masses (1/2) :      768.71       20.18
CMA distance (Bohr)    :   0.000
constraining FC (au)   :  0.0500
 
             =======================================
             |                                     |
             |        S C C  calculation           |
             |                                     |
             =======================================
 #proc     :                      1
 Ncao      :                    266
 Nao       :                    265
 Nel       :                    296
 T(el)     :   300.0
 intcut    :    25.0
 scfconv   :  0.100E-05
   qconv   :  0.200E-04
 intneglect:  0.100E-07
 broydamp  :      0.400
 Nshell    :                    147
 iter      E             dE          RMSdq      gap      omega  full diag
   1   -175.2938455 -0.175294E+03  0.100E+01    4.71       0.0  T
   2   -176.0727964 -0.778951E+00  0.540E+00    5.08       1.0  T
   3   -176.0562128  0.165837E-01  0.220E+00    4.54       1.0  T
   4   -176.1722673 -0.116055E+00  0.546E-01    5.13       1.0  T
   5   -176.1826585 -0.103912E-01  0.219E-01    5.02       1.0  T
   6   -176.1833722 -0.713717E-03  0.836E-02    5.04       1.0  T
   7   -176.1835228 -0.150618E-03  0.348E-02    5.01       1.0  T
   8   -176.1835810 -0.581123E-04  0.141E-02    5.03       1.0  T
   9   -176.1835886 -0.764824E-05  0.509E-03    5.03       2.1  T
  10   -176.1835881  0.535330E-06  0.402E-03    5.03       2.6  T
  11   -176.1835891 -0.107866E-05  0.607E-04    5.03      17.5  T
  12   -176.1835892 -0.670957E-08  0.311E-04    5.03      34.1  T
  13   -176.1835892 -0.486963E-08  0.149E-04    5.03      71.3  T
  14   -176.1835892 -0.165599E-08  0.260E-05    5.03     407.7  T
speedup  6.88
cpu  time for SCC    4.52 s
wall time for SCC    0.66 s

          eigenvalues
 #    :         136        137        138        139        140        141        142        143
 occ. :        2.000      2.000      2.000      2.000      2.000      2.000      2.000      2.000
 eps  :       -10.404    -10.377    -10.377    -10.367    -10.340    -10.219    -10.156    -10.156
 #    :         144        145        146        147        148        149        150        151
 occ. :        2.000      2.000      2.000      2.000      2.000      0.000      0.000      0.000
 eps  :       -10.066     -9.979     -9.951     -9.951     -9.795     -4.765     -4.684     -4.551
 #    :         152        153        154        155        156        157        158        159
 occ. :        0.000      0.000      0.000      0.000      0.000      0.000      0.000      0.000
 eps  :        -4.551     -4.509     -4.509     -4.381     -4.381     -4.270     -4.260     -4.209
 
 
 Mulliken/CM5 charges        n(s)   n(p)   n(d)
     1 C   0.08149  0.20699   1.080  2.838  0.000
     2 C   0.08149  0.20699   1.080  2.838  0.000
     3 C   0.08149  0.20699   1.080  2.838  0.000
     4 C   0.08149  0.20699   1.080  2.838  0.000
     5 C   0.08149  0.20700   1.080  2.838  0.000
     6 C   0.08149  0.20700   1.080  2.838  0.000
     7 C   0.08149  0.20700   1.080  2.838  0.000
     8 C   0.08149  0.20700   1.080  2.838  0.000
     9 N  -0.04218 -0.27739   1.130  3.912  0.000
    10 N  -0.04218 -0.27739   1.130  3.912  0.000
    11 N  -0.04218 -0.27739   1.130  3.912  0.000
    12 N  -0.04218 -0.27739   1.130  3.912  0.000
    13 N  -0.04218 -0.27739   1.130  3.912  0.000
    14 N  -0.04218 -0.27739   1.130  3.912  0.000
    15 N  -0.04218 -0.27739   1.130  3.912  0.000
    16 N  -0.04218 -0.27739   1.130  3.912  0.000
    17 N  -0.04218 -0.27739   1.130  3.912  0.000
    18 N  -0.04218 -0.27739   1.130  3.912  0.000
    19 N  -0.04218 -0.27739   1.130  3.912  0.000
    20 N  -0.04218 -0.27739   1.130  3.912  0.000
    21 N  -0.04218 -0.27739   1.130  3.912  0.000
    22 N  -0.04218 -0.27739   1.130  3.912  0.000
    23 N  -0.04218 -0.27739   1.130  3.912  0.000
    24 N  -0.04218 -0.27739   1.130  3.912  0.000
    25 C   0.23387  0.40516   1.056  2.710  0.000
    26 C   0.23387  0.40516   1.056  2.710  0.000
    27 C   0.23387  0.40516   1.056  2.710  0.000
    28 C   0.23387  0.40516   1.056  2.710  0.000
    29 C   0.23387  0.40516   1.056  2.710  0.000
    30 C   0.23387  0.40516   1.056  2.710  0.000
    31 C   0.23387  0.40516   1.056  2.710  0.000
    32 C   0.23387  0.40516   1.056  2.710  0.000
    33 O  -0.39961 -0.44172   1.725  4.674  0.000
    34 O  -0.39961 -0.44172   1.725  4.674  0.000
    35 O  -0.39961 -0.44172   1.725  4.674  0.000
    36 O  -0.39961 -0.44172   1.725  4.674  0.000
    37 O  -0.39961 -0.44172   1.725  4.674  0.000
    38 O  -0.39961 -0.44172   1.725  4.674  0.000
    39 O  -0.39961 -0.44172   1.725  4.674  0.000
    40 O  -0.39961 -0.44172   1.725  4.674  0.000
    41 C   0.03324  0.06009   1.071  2.895  0.000
    42 C   0.03324  0.06009   1.071  2.895  0.000
    43 C   0.03324  0.06009   1.071  2.895  0.000
    44 C   0.03324  0.06009   1.071  2.895  0.000
    45 C   0.03324  0.06009   1.071  2.895  0.000
    46 C   0.03324  0.06009   1.071  2.895  0.000
    47 C   0.03324  0.06009   1.071  2.895  0.000
    48 C   0.03324  0.06009   1.071  2.895  0.000
    49 H   0.03817  0.11501   0.962  0.000  0.000
    50 H   0.03817  0.11501   0.962  0.000  0.000
    51 H   0.03817  0.11501   0.962  0.000  0.000
    52 H   0.03817  0.11501   0.962  0.000  0.000
    53 H   0.03817  0.11501   0.962  0.000  0.000
    54 H   0.03817  0.11501   0.962  0.000  0.000
    55 H   0.03817  0.11501   0.962  0.000  0.000
    56 H   0.03817  0.11501   0.962  0.000  0.000
    57 H   0.07255  0.16092   0.927  0.000  0.000
    58 H   0.07255  0.16092   0.927  0.000  0.000
    59 H   0.07255  0.16092   0.927  0.000  0.000
    60 H   0.07255  0.16092   0.927  0.000  0.000
    61 H   0.07255  0.16092   0.927  0.000  0.000
    62 H   0.07255  0.16092   0.927  0.000  0.000
    63 H   0.07255  0.16092   0.927  0.000  0.000
    64 H   0.07255  0.16092   0.927  0.000  0.000
    65 C  -0.04618 -0.13879   1.077  2.970  0.000
    66 C  -0.04618 -0.13879   1.077  2.970  0.000
    67 C  -0.04618 -0.13879   1.077  2.970  0.000
    68 C  -0.04618 -0.13879   1.077  2.970  0.000
    69 H   0.03536  0.09411   0.965  0.000  0.000
    70 H   0.03536  0.09411   0.965  0.000  0.000
    71 H   0.03536  0.09411   0.965  0.000  0.000
    72 H   0.03536  0.09411   0.965  0.000  0.000
    73 H   0.03536  0.09411   0.965  0.000  0.000
    74 H   0.03536  0.09411   0.965  0.000  0.000
    75 H   0.03536  0.09411   0.965  0.000  0.000
    76 H   0.03536  0.09411   0.965  0.000  0.000
    77 C  -0.04618 -0.13879   1.077  2.970  0.000
    78 C  -0.04618 -0.13879   1.077  2.970  0.000
    79 C  -0.04618 -0.13879   1.077  2.970  0.000
    80 C  -0.04618 -0.13879   1.077  2.970  0.000
    81 H   0.03536  0.09412   0.965  0.000  0.000
    82 H   0.03536  0.09412   0.965  0.000  0.000
    83 H   0.03536  0.09412   0.965  0.000  0.000
    84 H   0.03536  0.09412   0.965  0.000  0.000
    85 H   0.03536  0.09412   0.965  0.000  0.000
    86 H   0.03536  0.09412   0.965  0.000  0.000
    87 H   0.03536  0.09412   0.965  0.000  0.000
    88 H   0.03536  0.09412   0.965  0.000  0.000
    89 NE  0.00075 -0.00895   2.000  6.000 -0.000
 
 Wiberg/Mayer (AO) data. WBOs > 0.1 written file <wbo>
 largest (>0.05) Wiberg bond orders for each atom
           total WBO             WBO to atom ...
     1  C   3.963    N   21 0.993    N   17 0.993    C   77 0.946    C    5 0.932
     2  C   3.963    N   22 0.993    N   18 0.993    C   78 0.946    C    6 0.932
     3  C   3.963    N   23 0.993    N   19 0.993    C   79 0.946    C    7 0.932
     4  C   3.963    N   20 0.993    N   24 0.993    C   80 0.946    C    8 0.932
     5  C   3.963    N   13 0.993    N    9 0.993    C   65 0.946    C    1 0.932
     6  C   3.963    N   10 0.993    N   14 0.993    C   66 0.946    C    2 0.932
     7  C   3.963    N   15 0.993    N   11 0.993    C   67 0.946    C    3 0.932
     8  C   3.963    N   12 0.993    N   16 0.993    C   68 0.946    C    4 0.932
     9  N   3.419    C   25 1.097    C   41 0.996    C    5 0.993    O   33 0.149
    10  N   3.419    C   26 1.097    C   42 0.996    C    6 0.993    O   34 0.149
    11  N   3.419    C   27 1.097    C   43 0.996    C    7 0.993    O   35 0.149
    12  N   3.419    C   28 1.097    C   44 0.996    C    8 0.993    O   36 0.149
    13  N   3.419    C   29 1.097    C   45 0.996    C    5 0.993    O   37 0.149
    14  N   3.419    C   30 1.097    C   46 0.996    C    6 0.993    O   38 0.149
    15  N   3.419    C   31 1.097    C   47 0.996    C    7 0.993    O   39 0.149
    16  N   3.419    C   32 1.097    C   48 0.996    C    8 0.993    O   40 0.149
    17  N   3.419    C   25 1.097    C   42 0.996    C    1 0.993    O   33 0.149
    18  N   3.419    C   26 1.097    C   43 0.996    C    2 0.993    O   34 0.149
    19  N   3.419    C   27 1.097    C   48 0.996    C    3 0.993    O   35 0.149
    20  N   3.419    C   28 1.097    C   45 0.996    C    4 0.993    O   36 0.149
    21  N   3.419    C   29 1.097    C   46 0.996    C    1 0.993    O   37 0.149
    22  N   3.419    C   30 1.097    C   47 0.996    C    2 0.993    O   38 0.149
    23  N   3.419    C   31 1.097    C   44 0.996    C    3 0.993    O   39 0.149
    24  N   3.419    C   32 1.097    C   41 0.996    C    4 0.993    O   40 0.149
    25  C   3.965    O   33 1.703    N    9 1.097    N   17 1.097
    26  C   3.965    O   34 1.703    N   10 1.097    N   18 1.097
    27  C   3.965    O   35 1.703    N   11 1.097    N   19 1.097
    28  C   3.965    O   36 1.703    N   12 1.097    N   20 1.097
    29  C   3.965    O   37 1.703    N   13 1.097    N   21 1.097
    30  C   3.965    O   38 1.703    N   14 1.097    N   22 1.097
    31  C   3.965    O   39 1.703    N   15 1.097    N   23 1.097
    32  C   3.965    O   40 1.703    N   16 1.097    N   24 1.097
    33  O   2.063    C   25 1.703    N    9 0.149    N   17 0.149
    34  O   2.063    C   26 1.703    N   10 0.149    N   18 0.149
    35  O   2.063    C   27 1.703    N   11 0.149    N   19 0.149
    36  O   2.063    C   28 1.703    N   12 0.149    N   20 0.149
    37  O   2.063    C   29 1.703    N   13 0.149    N   21 0.149
    38  O   2.063    C   30 1.703    N   14 0.149    N   22 0.149
    39  O   2.063    C   31 1.703    N   15 0.149    N   23 0.149
    40  O   2.063    C   32 1.703    N   16 0.149    N   24 0.149
    41  C   3.969    N    9 0.996    N   24 0.996    H   49 0.965    H   57 0.958
    42  C   3.969    N   10 0.996    N   17 0.996    H   50 0.965    H   58 0.958
    43  C   3.969    N   11 0.996    N   18 0.996    H   51 0.965    H   59 0.958
    44  C   3.969    N   12 0.996    N   23 0.996    H   52 0.965    H   60 0.958
    45  C   3.969    N   13 0.996    N   20 0.996    H   53 0.965    H   61 0.958
    46  C   3.969    N   14 0.996    N   21 0.996    H   54 0.965    H   62 0.958
    47  C   3.969    N   15 0.996    N   22 0.996    H   55 0.965    H   63 0.958
    48  C   3.969    N   16 0.996    N   19 0.996    H   56 0.965    H   64 0.958
    49  H   0.998    C   41 0.965
    50  H   0.998    C   42 0.965
    51  H   0.998    C   43 0.965
    52  H   0.998    C   44 0.965
    53  H   0.998    C   45 0.965
    54  H   0.998    C   46 0.965
    55  H   0.998    C   47 0.965
    56  H   0.998    C   48 0.965
    57  H   0.994    C   41 0.958
    58  H   0.994    C   42 0.958
    59  H   0.994    C   43 0.958
    60  H   0.994    C   44 0.958
    61  H   0.994    C   45 0.958
    62  H   0.994    C   46 0.958
    63  H   0.994    C   47 0.958
    64  H   0.994    C   48 0.958
    65  C   3.988    C   77 1.002    H   69 0.981    H   73 0.981    C    5 0.946
    66  C   3.988    C   78 1.002    H   70 0.981    H   74 0.981    C    6 0.946
    67  C   3.988    C   79 1.002    H   71 0.981    H   75 0.981    C    7 0.946
    68  C   3.988    C   80 1.002    H   76 0.981    H   72 0.981    C    8 0.946
    69  H   0.998    C   65 0.981
    70  H   0.998    C   66 0.981
    71  H   0.998    C   67 0.981
    72  H   0.998    C   68 0.981
    73  H   0.998    C   65 0.981
    74  H   0.998    C   66 0.981
    75  H   0.998    C   67 0.981
    76  H   0.998    C   68 0.981
    77  C   3.988    C   65 1.002    H   81 0.981    H   85 0.981    C    1 0.946
    78  C   3.988    C   66 1.002    H   82 0.981    H   86 0.981    C    2 0.946
    79  C   3.988    C   67 1.002    H   83 0.981    H   87 0.981    C    3 0.946
    80  C   3.988    C   68 1.002    H   88 0.981    H   84 0.981    C    4 0.946
    81  H   0.998    C   77 0.981
    82  H   0.998    C   78 0.981
    83  H   0.998    C   79 0.981
    84  H   0.998    C   80 0.981
    85  H   0.998    C   77 0.981
    86  H   0.998    C   78 0.981
    87  H   0.998    C   79 0.981
    88  H   0.998    C   80 0.981
    89  NE  0.000
 density
 
 cube file module (SG, 7/16)
 cube_pthr     :   0.005
 cube_step     :   0.400
 non-zero P (%):  26.133   nmat:    9280
 Grid Boundaries (x y z) :
   13.5111672640965        13.5111672742311        8.95886665616106     
  -13.5111672661621       -13.5111672677420       -8.95886665029317     
 Total # of points                208080
 writing density.cub
 N    (numint) : ******
cpu  time for cube    1 m  2.1 s
wall time for cube    1 m  1.0 s
 
molecular dipole:
                 x           y           z       tot (Debye)
 q only:       -0.000      -0.000       0.000
   full:       -0.000      -0.000       0.000       0.000
molecular quadrupole (traceless):
                xx          xy          yy          xz          yz          zz
 q only:       54.098       0.000      54.098       0.000      -0.000    -108.196
  q+dip:       61.409       0.000      61.409       0.000      -0.000    -122.819
   full:       63.947       0.000      63.947       0.000      -0.000    -127.893
 SCC converged in                     14  cycles
 
SCC energy    :    -176.1835892
rep           :       1.8261302
ES            :      -0.0231517
AES           :       0.0130995
disp          :      -0.1342859
XB            :       0.0000000
fix           :       0.0000000
total E       :    -174.4917448
atomizationE  :      23.5324465    14766.83
(atE without considerung molecular charge,
 total energy contains solvation terms)
H-L gap (eV)  :          5.0298
 
       ===================================
       |          GMD driver             |
       ===================================
 
 
 MD time /ps        :   50.00
 dt /fs             :    4.00
 SCC accuracy       :    1.00
 temperature /K     :  298.15
 max steps          : 12500
 block length (av.) :   875
 dumpstep(trj) /fs  :   50.00    12
 dumpstep(coords)/fs: 1000.00   250
 minimum runtime(ps):   5.0
 maximum runtime(ps):  50.0
 H atoms mass (amu) :     4
 # deg. of freedom  :   163
 SHAKE on. # bonds  :                   104  all: T
 Berendsen THERMOSTAT on
 EQUILIBRATION mode
         time (ps)    <Epot>      Ekin   <T>   T     Etot
  q data taken from xtbrestart
  CAMM data taken from xtbrestart
      0    0.00      0.00000   0.0480    0.    0.  -174.44376
est. speed in wall clock h for 100 ps :  5.04
    200    0.80   -173.60351   0.0213   85.   83.  -174.44869
    400    1.60   -174.03582   0.0232   87.   90.  -174.44640
    600    2.40   -174.18044   0.0221   88.   86.  -174.44773
    800    3.20   -174.25273   0.0263   88.  102.  -174.44564
block <Epot> / <T> :    -174.47050   88.     drift:  0.99D+02   Tbath : 134.
   1000    4.00   -174.29531   0.0319   92.  124.  -174.42827
   1200    4.80   -174.32260   0.0350   99.  136.  -174.42348
   1400    5.60   -174.34197   0.0317  104.  123.  -174.42178
   1600    6.40   -174.35647   0.0389  108.  151.  -174.42179
block <Epot> / <T> :    -174.45912  132.     drift:  0.99D+02   Tbath : 201.
   1800    7.20   -174.36761   0.0457  111.  177.  -174.40656
   2000    8.00   -174.37509   0.0469  120.  182.  -174.39169
   2200    8.80   -174.38106   0.0531  127.  206.  -174.38916
   2400    9.60   -174.38608   0.0540  133.  209.  -174.39009
   2600   10.40   -174.39031   0.0471  138.  182.  -174.38557
block <Epot> / <T> :    -174.44203  198.     drift:  0.99D+02   Tbath : 298.
   2800   11.20   -174.39290   0.0809  147.  313.  -174.33652
   3000   12.00   -174.39461   0.0754  157.  292.  -174.33791
   3200   12.80   -174.39605   0.0800  166.  310.  -174.33509
   3400   13.60   -174.39728   0.0698  174.  270.  -174.34569
block <Epot> / <T> :    -174.41868  293.     drift:  0.17D-01   Tbath : 298.
   3600   14.40   -174.39828   0.0793  181.  307.  -174.33701
   3800   15.20   -174.39922   0.0811  187.  314.  -174.33552
   4000   16.00   -174.40006   0.0703  193.  272.  -174.34676
   4200   16.80   -174.40076   0.0783  198.  304.  -174.33716
block <Epot> / <T> :    -174.41555  298.     drift:  0.15D-01   Tbath : 298.
   4400   17.60   -174.40143   0.0840  202.  326.  -174.33748
   4600   18.40   -174.40201   0.0846  206.  328.  -174.34229
   4800   19.20   -174.40261   0.0802  210.  311.  -174.34145
   5000   20.00   -174.40312   0.0699  214.  271.  -174.33330
   5200   20.80   -174.40358   0.0845  217.  327.  -174.34109
block <Epot> / <T> :    -174.41533  298.     drift:  0.83D-02   Tbath : 298.
   5400   21.60   -174.40400   0.0665  220.  258.  -174.34315
   5600   22.40   -174.40442   0.0678  223.  263.  -174.33923
   5800   23.20   -174.40482   0.0802  225.  311.  -174.34220
   6000   24.00   -174.40520   0.0854  228.  331.  -174.33683
block <Epot> / <T> :    -174.41586  298.     drift:  0.87D-03   Tbath : 298.
 GOOD AVERAGES REACHED
 average properties 
 Epot               :  -174.433869596407     
 Epot (accurate SCC):  -174.433729222667     
 Ekin               :  5.916940222891177E-002
 Etot               :  -174.374700194178     
 T                  :   229.253955656483     
 normal exit of md()
 
 MD time /ps        :   50.00
 dt /fs             :    4.00
 SCC accuracy       :    1.00
 temperature /K     :  298.15
 max steps          : 50000
 block length (av.) :   875
 dumpstep(trj) /fs  :   50.00    12
 dumpstep(coords)/fs: 1000.00   250
 minimum runtime(ps):  50.0
 maximum runtime(ps): 200.0
 H atoms mass (amu) :     4
 # deg. of freedom  :   163
 SHAKE on. # bonds  :                   104  all: T
 Berendsen THERMOSTAT on
 GMD mode
 RESTART
         time (ps)    <Epot>      Ekin   <T>   T     Etot
  q data taken from xtbrestart
  CAMM data taken from xtbrestart
 reading input structure for Re-R0 averaging
      0    0.00      0.00000   0.0854    0.    0.  -174.33708
est. speed in wall clock h for 100 ps :  5.07
    200    0.80   -173.54897   0.0698  298.  271.  -174.34074
    400    1.60   -173.98184   0.0687  298.  266.  -174.34795
    600    2.40   -174.12643   0.0709  298.  275.  -174.33747
    800    3.20   -174.19886   0.0766  298.  297.  -174.34034
block <Epot> / <T> :    -174.41655  298.     drift:  0.99D+02   Tbath : 298.
   1000    4.00   -174.24222   0.0733  298.  284.  -174.33837
   1200    4.80   -174.27111   0.0747  298.  289.  -174.33420
   1400    5.60   -174.29169   0.0725  298.  281.  -174.34393
   1600    6.40   -174.30708   0.0736  298.  285.  -174.34266
block <Epot> / <T> :    -174.41526  297.     drift:  0.99D+02   Tbath : 298.
   1800    7.20   -174.31904   0.0842  298.  326.  -174.33383
   2000    8.00   -174.32862   0.0709  298.  275.  -174.34853
   2200    8.80   -174.33646   0.0681  298.  264.  -174.33813
   2400    9.60   -174.34299   0.0823  298.  319.  -174.33396
   2600   10.40   -174.34846   0.0816  298.  316.  -174.33384
block <Epot> / <T> :    -174.41469  298.     drift:  0.99D+02   Tbath : 298.
   2800   11.20   -174.35319   0.0827  298.  321.  -174.33566
   3000   12.00   -174.35729   0.0776  298.  301.  -174.32716
   3200   12.80   -174.36091   0.0692  298.  268.  -174.34763
   3400   13.60   -174.36410   0.0695  298.  269.  -174.33490
block <Epot> / <T> :    -174.41502  299.     drift:  0.52D-03   Tbath : 298.
   3600   14.40   -174.36697   0.0788  298.  305.  -174.33627
   3800   15.20   -174.36950   0.0723  298.  280.  -174.34458
   4000   16.00   -174.37177   0.0750  298.  291.  -174.33743
   4200   16.80   -174.37382   0.0756  298.  293.  -174.34006
block <Epot> / <T> :    -174.41510  298.     drift:  0.17D-04   Tbath : 298.
   4400   17.60   -174.37569   0.0730  298.  283.  -174.33168
   4600   18.40   -174.37740   0.0717  298.  278.  -174.33955
   4800   19.20   -174.37898   0.0836  298.  324.  -174.34026
   5000   20.00   -174.38042   0.0815  298.  316.  -174.33524
   5200   20.80   -174.38176   0.0682  298.  264.  -174.34324
block <Epot> / <T> :    -174.41521  298.     drift: -0.17D-03   Tbath : 298.
   5400   21.60   -174.38305   0.0814  298.  315.  -174.33486
   5600   22.40   -174.38424   0.0880  298.  341.  -174.33507
   5800   23.20   -174.38530   0.0707  298.  274.  -174.34351
   6000   24.00   -174.38628   0.0744  298.  288.  -174.34120
block <Epot> / <T> :    -174.41552  298.     drift: -0.16D-03   Tbath : 298.
   6200   24.80   -174.38721   0.0831  298.  322.  -174.33124
   6400   25.60   -174.38806   0.0663  298.  257.  -174.34799
   6600   26.40   -174.38886   0.0781  298.  302.  -174.33472
   6800   27.20   -174.38960   0.0744  298.  288.  -174.34102
   7000   28.00   -174.39029   0.0904  298.  350.  -174.34019
block <Epot> / <T> :    -174.41422  297.     drift:  0.23D-03   Tbath : 298.
   7200   28.80   -174.39095   0.0768  298.  297.  -174.32921
   7400   29.60   -174.39158   0.0811  298.  314.  -174.33704
   7600   30.40   -174.39219   0.0761  298.  295.  -174.33057
   7800   31.20   -174.39274   0.0712  298.  276.  -174.34611
block <Epot> / <T> :    -174.41432  299.     drift:  0.40D-03   Tbath : 298.
   8000   32.00   -174.39330   0.0815  298.  316.  -174.35063
   8200   32.80   -174.39384   0.0787  298.  305.  -174.33483
   8400   33.60   -174.39434   0.0702  298.  272.  -174.34295
   8600   34.40   -174.39482   0.0773  298.  299.  -174.33912
block <Epot> / <T> :    -174.41510  298.     drift:  0.12D-03   Tbath : 298.
   8800   35.20   -174.39528   0.0708  298.  274.  -174.34592
   9000   36.00   -174.39571   0.0857  298.  332.  -174.33283
   9200   36.80   -174.39612   0.0816  298.  316.  -174.33113
   9400   37.60   -174.39652   0.0780  298.  302.  -174.33184
   9600   38.40   -174.39689   0.0731  298.  283.  -174.34073
block <Epot> / <T> :    -174.41463  298.     drift: -0.20D-03   Tbath : 298.
   9800   39.20   -174.39724   0.0853  298.  331.  -174.33603
  10000   40.00   -174.39758   0.0714  298.  276.  -174.34954
  10200   40.80   -174.39791   0.0803  298.  311.  -174.34150
  10400   41.60   -174.39823   0.0792  298.  307.  -174.33364
block <Epot> / <T> :    -174.41434  298.     drift:  0.43D-04   Tbath : 298.
  10600   42.40   -174.39854   0.0698  298.  270.  -174.34328
  10800   43.20   -174.39886   0.0731  298.  283.  -174.33592
  11000   44.00   -174.39919   0.0723  298.  280.  -174.34567
  11200   44.80   -174.39952   0.0830  298.  322.  -174.34862
block <Epot> / <T> :    -174.41649  299.     drift: -0.39D-03   Tbath : 298.
  11400   45.60   -174.39982   0.0793  298.  307.  -174.32602
  11600   46.40   -174.40009   0.0730  298.  283.  -174.34066
  11800   47.20   -174.40037   0.0765  298.  296.  -174.33506
  12000   48.00   -174.40061   0.0730  298.  283.  -174.34315
  12200   48.80   -174.40084   0.0813  298.  315.  -174.33228
block <Epot> / <T> :    -174.41547  297.     drift: -0.47D-03   Tbath : 298.
  12400   49.60   -174.40108   0.0750  298.  291.  -174.33474
 GOOD AVERAGES REACHED
 average properties 
 Epot               :  -174.415152773502     
 Epot (accurate SCC):  -174.415158114011     
 Ekin               :  7.693177825405792E-002
 Etot               :  -174.338220995248     
 T                  :   298.074913993509     
 corrections to Re Z-matrix:
   1  C     0.000000      0.0000      0.0000     0    0    0
   2  C    -0.022848      0.0000      0.0000     1    0    0
   3  C    -0.025192     -0.0866      0.0000     2    1    0
   4  C    -0.022988      0.0587      0.0721     3    2    1
   5  C     0.000000      0.0425     -0.0801     1    2    3
   6  C     0.000000     -0.0606      0.0399     2    1    3
   7  C     0.000000      0.0659      0.0461     3    2    1
   8  C     0.000000     -0.0697     -0.0796     4    3    2
   9  N     0.000000     -0.0516     -0.3065     5    1    2
  10  N     0.000000     -0.0615      0.2552     6    2    1
  11  N     0.000000     -0.0568     -0.3382     7    3    2
  12  N     0.000000     -0.0580      0.2510     8    4    3
  13  N     0.000000     -0.0554     -0.2455     5    1    2
  14  N     0.000000     -0.0712      0.3358     6    2    1
  15  N     0.000000     -0.0555     -0.2835     7    3    2
  16  N     0.000000     -0.0503      0.1489     8    4    3
  17  N     0.000000     -0.2215     -0.4637     1    2    3
  18  N     0.000000      0.2241     -0.2148     2    1    3
  19  N     0.000000     -0.1180      0.3411     3    2    1
  20  N     0.000000     -0.0575     -0.3932     4    3    2
  21  N     0.000000      0.2874     -0.0146     1    2    3
  22  N     0.000000     -0.0843     -0.3543     2    1    3
  23  N     0.000000      0.1303      0.2202     3    2    1
  24  N     0.000000      0.2164     -0.2734     4    3    2
  25  C     0.000000     -0.5177      1.4015     9    5    1
  26  C     0.000000     -0.5629      1.7564    10    6    2
  27  C     0.000000     -0.5300      1.4211    11    7    3
  28  C     0.000000     -0.5442      0.2469    12    8    4
  29  C     0.000000     -0.5429      0.2107    13    5    1
  30  C     0.000000     -0.5301      0.2684    14    6    2
  31  C     0.000000     -0.5326      0.2929    15    7    3
  32  C     0.000000     -0.5383      1.4618    16    8    4
  33  O     0.000000     -0.2709      0.1610    25    9    5
  34  O     0.000000     -0.2591      0.3901    26   10    6
  35  O     0.000000     -0.2518      0.0725    27   11    7
  36  O     0.000000     -0.2484     -0.2358    28   12    8
  37  O     0.000000     -0.2620     -0.1789    29   13    5
  38  O     0.000000     -0.2494     -0.3064    30   14    6
  39  O     0.000000     -0.2504     -0.2515    31   15    7
  40  O     0.000000     -0.2554      0.4269    32   16    8
  41  C     0.000000     -1.1791     -0.2539     9    5    1
  42  C     0.000000     -1.1559      0.6091    10    6    2
  43  C     0.000000     -1.1604     -0.2677    11    7    3
  44  C     0.000000     -1.1227      0.3086    12    8    4
  45  C     0.000000     -1.1527     -0.7229    13    5    1
  46  C     0.000000     -1.0884      0.3759    14    6    2
  47  C     0.000000     -1.1412     -0.8410    15    7    3
  48  C     0.000000     -1.1253      0.4819    16    8    4
  49  H     0.000000     -0.2554      0.4658    41    9    5
  50  H     0.000000     -0.2255     -0.7089    42   10    6
  51  H     0.000000     -0.2546      0.5146    43   11    7
  52  H     0.000000     -0.2490     -0.2499    44   12    8
  53  H     0.000000     -0.2207      0.6819    45   13    5
  54  H     0.000000     -0.2553     -0.3554    46   14    6
  55  H     0.000000     -0.2386      0.8428    47   15    7
  56  H     0.000000     -0.2448     -0.5983    48   16    8
  57  H     0.000000      0.2988      0.8460    41    9    5
  58  H     0.000000      0.2112     -0.3078    42   10    6
  59  H     0.000000      0.2986      0.8965    43   11    7
  60  H     0.000000      0.2850     -0.6310    44   12    8
  61  H     0.000000      0.1959      0.2957    45   13    5
  62  H     0.000000      0.2921     -0.7304    46   14    6
  63  H     0.000000      0.1826      0.4092    47   15    7
  64  H     0.000000      0.2284     -0.1954    48   16    8
  65  C     0.000000     -0.1181     -0.2645     5    1    2
  66  C     0.000000     -0.1295      0.2973     6    2    1
  67  C     0.000000     -0.1212     -0.2972     7    3    2
  68  C     0.000000     -0.1165      0.2006     8    4    3
  69  H     0.000000     -0.0629     -0.0294    65    5    1
  70  H     0.000000     -0.0915      0.0645    66    6    2
  71  H     0.000000     -0.0736      0.0421    67    7    3
  72  H     0.000000     -0.0371      0.1082    68    8    4
  73  H     0.000000     -0.0903     -0.0493    65    5    1
  74  H     0.000000     -0.0519      0.0682    66    6    2
  75  H     0.000000     -0.0816      0.0095    67    7    3
  76  H     0.000000     -0.0880      0.1062    68    8    4
  77  C     0.000000     -0.1248     -0.0266    65    5    1
  78  C     0.000000     -0.1294      0.0534    66    6    2
  79  C     0.000000     -0.1171      0.0258    67    7    3
  80  C     0.000000     -0.1166      0.0798    68    8    4
  81  H     0.000000     -0.0866      0.0258    77   65    5
  82  H     0.000000     -0.0893     -0.0444    78   66    6
  83  H     0.000000     -0.0802     -0.0339    79   67    7
  84  H     0.000000     -0.1093     -0.0805    80   68    8
  85  H     0.000000     -0.0850      0.0372    77   65    5
  86  H     0.000000     -0.0960     -0.0423    78   66    6
  87  H     0.000000     -0.0878     -0.0602    79   67    7
  88  H     0.000000     -0.0887     -0.0735    80   68    8
  89  NE   -0.013661      0.5750      0.0347    29   13    5
Be      (a,b,c, in MHz) :     74.744     74.744     57.364
Be - B0 (a,b,c, in MHz) :     -0.564     -0.424     -0.382
 corrected structure on <xtb_mdav.coord>
 normal exit of md()
 
speedup  6.79
cpu  time for all    1 d  1 h 47 m 45.2 s
wall time for all    0 d  3 h 48 m  1.2 s
