 
        ______________________________________
       |                                      |
       |           ==================         |
       |                 x T B                |
       |           ==================         |
       |               S. Grimme              |
       |        Universitaet Bonn, MCTC       |
       |         2015-18, Version 5.0         |
       |      Sat Jan 20 11:00:33 CET 2018    |
       |______________________________________|
 
        This code comes without any warranty
        for non-commercial, academia use only.
        Cite GFN-xTB work as:
        S. Grimme, C. Bannwarth, P. Shushkov
        JCTC, 13 (2017) 1989-2009
        for GFN2:
        C. Bannwarth, S. Ehlert, S. Grimme
        to be published.
        sTDA-xTB:
        S. Grimme  &  C. Bannwarth, JCP 145 (2016) 054103
        in the mass-spec context additionally:
        V. Asgeirsson, C.Bauer, S. Grimme, Chem. Sci. 8 (2017) 4879
 
        with help from
        P. Shushkov, G. Brandenburg, S. Dohm, J. Pisarek,
        F. März, M. Checinski, S. Ehrlich, S. Spicher, 
        P. Pracht, E. Caldeweyher, S. Ehlert, and C. Bannwarth.
 
        usage        :
        xtb <coord_file> [options]
        where <coord_file> is a valid file of TM)
        (*coord, Bohr) or xmol (*xyz, Angstroem)
        format.

        options:
        -chrg <int>   : molecular charge
        -uhf  <int>   : # of unpaired electrons(=2*S)
        -nox          : skip second, extended part in sTDA-xTB
        -pop          : do population analysis
                      : (default for -nox)
        -mowr <real>  : cut MO write above (def.3 Eh)
        -molden       : write formatted molden file
        -parx <file>  : read parameters for sTDA-xTB
                        calc (def:~/.param_stda2.xtb)
        -parv <file>  : read parameters for vTB part in
                        sTDA-xTB (def: ~/.param_stda1.xtb)
        -xtemp <real> : el. temp for xTB (def. 0 K)
        -etemp <real> : el. temp for GFN (def. 300 K)
        -fod          : do a xTB calc. of the FOD
                        and write molden.input file 
                        with appropriate occupations
                        for plotting. Def. T=12500 K
 
        -gfn          : use GFN-xTB
        -grad         : GFN-xTB gradient
        -acc <real>   : GFN-xTB accuracy (def. 1.0)
        -opt [level]  : optimize at GFN-xTB
                      : level=crude,vloose,loose,
                      :       tight,vtight
        -hess         : compute Hessian at GFN-xTB
        -ohess        : optimize and compute Hessian
        -omd          : optimize and do MD
        -siman        : conformational search
        -screen       : opt. loop over ensemble
        -gmd          : annealed MD for GMD procedure
        -modef        : vib mode following
        -gbsa [string1] [string2]
                        use GBSA implicit solvent
                        for solvent [string1] and
                        solvation state [string2]=
                        reference, bar1M (default=1M)
        additional GFN/opt/MD/siman options read from
        $XTBHOME/.xtbrc or $set in coordinate file
 
       spin and charge state information can be on:
       <.CHRG> (charge) and <.UHF> (=nalpha-nbeta)
       -uhf and -chrg override the file info.
       useful machine settings:
       setenv MKL_NUM_THREADS <NCORE_ON_YOUR_MACHINE>
       setenv OMP_STACKSIZE 500m
       limit stacksize unlimited
 
       total energies in Eh, gaps/HL energies in eV
       please read REVISION and HOWTO files carefully
 =============================
  # OMP threads =                     1
 =============================
 
 xtbhome directory:/Applications/xtb/
 
 argument                      1 :-opt
 argument                      2 :tight
 
 number of atoms            :    73
 number of electrons        :   256
 charge                     :  0
 spin                       : 0.0
 first test random number   :  0.4270
 
 
KAB for pair M(3d)-M(3d) :  1.1000
KAB for pair M(4d)-M(4d) :  1.2000
KAB for pair M(5d)-M(5d) :  1.2000
 -----------------------------------------
  G F N (Geometry, Frequency, Non-covalent)
        parametrization, version                     2
 /Applications/xtb/.param_gfn2.xtb
 -----------------------------------------
      method parameters     
 k(s)        :  1.8500
 k(p)        :  2.2500
 k(d)        :  2.0000
 k(f)        :  0.0000
 alphaj      :  1.0000
 kEN (H0ij)  : -2.3620
 D3 a1       :  0.6900
 D3 a2       :  4.0530
 D3 s8       :  2.0000
 D3atm       :  1.0000
 AESdamp     :  5.5000
 AESrad      :  1.9230
 expscalexp  : -0.2500
 
     -------------------------
     ! NO SOLVENT MODEL USED !
     -------------------------
 
 doing EN charges ...
 sum q : -0.5329071D-14
 point charge moment (au)
     X       Y       Z   
  -0.0000   0.0000  -0.0000  total (Debye):    0.000
 
            Z      q(EN)   CN      Cart. coordinates
     1  C   4.0    0.21    4.30    -6.04559    -3.08099     0.00000
     2  C   4.0    0.21    4.30     3.08099    -6.04559     0.00000
     3  C   4.0    0.21    4.30     6.04559     3.08099     0.00000
     4  C   4.0    0.21    4.30    -3.08099     6.04559     0.00000
     5  C   4.0    0.21    4.30    -6.78270    -0.19035     0.00000
     6  C   4.0    0.21    4.30     0.19035    -6.78270     0.00000
     7  C   4.0    0.21    4.30     6.78270     0.19035     0.00000
     8  C   4.0    0.21    4.30    -0.19035     6.78270     0.00000
     9  N   5.0   -0.20    3.22    -5.72766     0.72675    -2.34475
    10  N   5.0   -0.20    3.22    -0.72675    -5.72766    -2.34475
    11  N   5.0   -0.20    3.22     5.72766    -0.72675    -2.34475
    12  N   5.0   -0.20    3.22     0.72675     5.72766     2.34475
    13  N   5.0   -0.20    3.22    -5.72766     0.72675     2.34475
    14  N   5.0   -0.20    3.22    -0.72675    -5.72766     2.34475
    15  N   5.0   -0.20    3.22     5.72766    -0.72675     2.34475
    16  N   5.0   -0.20    3.22     0.72675     5.72766    -2.34475
    17  N   5.0   -0.20    3.22    -4.68051    -3.38144    -2.34540
    18  N   5.0   -0.20    3.22     3.38144    -4.68051    -2.34540
    19  N   5.0   -0.20    3.22     4.68051     3.38144    -2.34540
    20  N   5.0   -0.20    3.22    -3.38144     4.68051     2.34540
    21  N   5.0   -0.20    3.22    -4.68051    -3.38144     2.34540
    22  N   5.0   -0.20    3.22     3.38144    -4.68051     2.34540
    23  N   5.0   -0.20    3.22     4.68051     3.38144     2.34540
    24  N   5.0   -0.20    3.22    -3.38144     4.68051    -2.34540
    25  C   4.0    0.44    3.25    -4.69312    -1.19673    -3.82227
    26  C   4.0    0.44    3.25     1.19673    -4.69312    -3.82227
    27  C   4.0    0.44    3.25     4.69312     1.19673    -3.82227
    28  C   4.0    0.44    3.25    -1.19673     4.69312     3.82227
    29  C   4.0    0.44    3.25    -4.69312    -1.19673     3.82227
    30  C   4.0    0.44    3.25     1.19673    -4.69312     3.82227
    31  C   4.0    0.44    3.25     4.69312     1.19673     3.82227
    32  C   4.0    0.44    3.25    -1.19673     4.69312    -3.82227
    33  O   6.0   -0.34    1.06    -4.00696    -1.02085    -5.99251
    34  O   6.0   -0.34    1.06     1.02085    -4.00696    -5.99251
    35  O   6.0   -0.34    1.06     4.00696     1.02085    -5.99251
    36  O   6.0   -0.34    1.06    -1.02085     4.00696     5.99251
    37  O   6.0   -0.34    1.06    -4.00696    -1.02085     5.99251
    38  O   6.0   -0.34    1.06     1.02085    -4.00696     5.99251
    39  O   6.0   -0.34    1.06     4.00696     1.02085     5.99251
    40  O   6.0   -0.34    1.06    -1.02085     4.00696    -5.99251
    41  C   4.0    0.25    4.13    -5.62244     3.33710    -3.15966
    42  C   4.0    0.25    4.13    -3.33710    -5.62244    -3.15966
    43  C   4.0    0.25    4.13     5.62244    -3.33710    -3.15966
    44  C   4.0    0.25    4.13     3.33710     5.62244     3.15966
    45  C   4.0    0.25    4.13    -5.62244     3.33710     3.15966
    46  C   4.0    0.25    4.13    -3.33710    -5.62244     3.15966
    47  C   4.0    0.25    4.13     5.62244    -3.33710     3.15966
    48  C   4.0    0.25    4.13     3.33710     5.62244    -3.15966
    49  H   1.0   -0.05    1.00    -7.30727     4.33722    -2.48741
    50  H   1.0   -0.05    1.00    -4.33722    -7.30727    -2.48741
    51  H   1.0   -0.05    1.00     7.30727    -4.33722    -2.48741
    52  H   1.0   -0.05    1.00     4.33722     7.30727     2.48741
    53  H   1.0   -0.05    1.00    -7.30727     4.33722     2.48741
    54  H   1.0   -0.05    1.00    -4.33722    -7.30727     2.48741
    55  H   1.0   -0.05    1.00     7.30727    -4.33722     2.48741
    56  H   1.0   -0.05    1.00     4.33722     7.30727    -2.48741
    57  H   1.0   -0.05    1.01    -5.59104     3.31700    -5.22545
    58  H   1.0   -0.05    1.01    -3.31700    -5.59104    -5.22545
    59  H   1.0   -0.05    1.01     5.59104    -3.31700    -5.22545
    60  H   1.0   -0.05    1.01     3.31700     5.59104     5.22545
    61  H   1.0   -0.05    1.01    -5.59104     3.31700     5.22545
    62  H   1.0   -0.05    1.01    -3.31700    -5.59104     5.22545
    63  H   1.0   -0.05    1.01     5.59104    -3.31700     5.22545
    64  H   1.0   -0.05    1.01     3.31700     5.59104    -5.22545
    65  H   1.0   -0.05    1.00    -8.84280     0.09605     0.00000
    66  H   1.0   -0.05    1.00    -0.09605    -8.84280     0.00000
    67  H   1.0   -0.05    1.00     8.84280    -0.09605     0.00000
    68  H   1.0   -0.05    1.00     0.09605     8.84280     0.00000
    69  H   1.0   -0.05    1.00    -7.71757    -4.31812     0.00000
    70  H   1.0   -0.05    1.00     4.31812    -7.71757     0.00000
    71  H   1.0   -0.05    1.00     7.71757     4.31812     0.00000
    72  H   1.0   -0.05    1.00    -4.31812     7.71757     0.00000
    73  NE  8.0   -0.06    0.03     0.00000     0.00000     0.00000
 
  Z AO/shell   Hii/eV     exponent
  1     Sat Jan 20 17:55:17 CET 2018    EN: 2.200 GAM: 0.531  GM3:-0.4370
     1s    -10.248275    1.266496
  6     Sat Jan 20 17:55:17 CET 2018    EN: 2.550 GAM: 0.417  GM3:-0.0654
     2s    -15.292509    2.030071
     2p    -10.408465    1.801676
  7     Sat Jan 20 17:55:17 CET 2018    EN: 3.040 GAM: 0.444  GM3:-0.1301
     2s    -16.687725    2.226550
     2p    -13.175143    1.981921
  8     Sat Jan 20 17:55:17 CET 2018    EN: 3.440 GAM: 0.468  GM3: 0.0937
     2s    -20.924998    2.442614
     2p    -15.243501    2.233841
 10     Sun Jan 21 09:56:42 CET 2018    EN: 4.500 GAM: 1.109  GM3: 0.2000
     2s    -25.000000    2.800000
     2p    -16.000000    2.600000
     3d     -4.162395    2.600000
 no old-style atom pair restraing (fixing) potential
 
 molecular fragmentation (1/2 indicates fragments):
1111111111111111111111111111111111111111111111111111111111111111111111112
# atoms in fragment 1/2:    72     1
 fragment masses (1/2) :      664.56       20.18
CMA distance (Bohr)    :   0.000
constraining FC (au)   :  0.0500
 
             =======================================
             |                                     |
             |        S C C  calculation           |
             |                                     |
             =======================================
 #proc     :                      1
 Ncao      :                    226
 Nao       :                    225
 Nel       :                    256
 T(el)     :   300.0
 intcut    :    25.0
 scfconv   :  0.100E-05
   qconv   :  0.200E-04
 intneglect:  0.100E-07
 broydamp  :      0.400
 Nshell    :                    123
 iter      E             dE          RMSdq      gap      omega  full diag
   1   -153.2803481 -0.153280E+03  0.976E+00    4.62       0.0  T
   2   -153.7061773 -0.425829E+00  0.537E+00    5.12       1.0  T
   3   -153.6441254  0.620519E-01  0.214E+00    4.54       1.0  T
   4   -153.8042221 -0.160097E+00  0.591E-01    5.11       1.0  T
   5   -153.8116452 -0.742304E-02  0.208E-01    5.08       1.0  T
   6   -153.8120635 -0.418324E-03  0.758E-02    5.09       1.0  T
   7   -153.8121208 -0.572680E-04  0.277E-02    5.09       1.0  T
   8   -153.8121303 -0.957844E-05  0.836E-03    5.09       1.4  T
   9   -153.8121311 -0.780556E-06  0.460E-03    5.09       2.5  T
  10   -153.8121314 -0.261517E-06  0.142E-03    5.09       8.2  T
  11   -153.8121314 -0.167320E-07  0.760E-04    5.09      15.4  T
  12   -153.8121314 -0.278560E-07  0.263E-04    5.09      44.5  T
  13   -153.8121314 -0.391677E-08  0.859E-05    5.09     136.2  T
  14   -153.8121314 -0.156376E-09  0.402E-05    5.09     291.5  T
speedup  6.88
cpu  time for SCC    3.09 s
wall time for SCC    0.45 s

          eigenvalues
 #    :         116        117        118        119        120        121        122        123
 occ. :        2.000      2.000      2.000      2.000      2.000      2.000      2.000      2.000
 eps  :       -10.435    -10.435    -10.423    -10.378    -10.375    -10.219    -10.189    -10.189
 #    :         124        125        126        127        128        129        130        131
 occ. :        2.000      2.000      2.000      2.000      2.000      0.000      0.000      0.000
 eps  :       -10.132    -10.122    -10.122    -10.082    -10.043     -4.951     -4.879     -4.703
 #    :         132        133        134        135        136        137        138        139
 occ. :        0.000      0.000      0.000      0.000      0.000      0.000      0.000      0.000
 eps  :        -4.703     -4.700     -4.700     -4.581     -4.478     -4.344     -4.335     -4.286
 
 
 Mulliken/CM5 charges        n(s)   n(p)   n(d)
     1 C   0.06656  0.14390   1.082  2.851  0.000
     2 C   0.06656  0.14390   1.082  2.851  0.000
     3 C   0.06656  0.14390   1.082  2.851  0.000
     4 C   0.06656  0.14390   1.082  2.851  0.000
     5 C   0.06658  0.14398   1.082  2.851  0.000
     6 C   0.06658  0.14398   1.082  2.851  0.000
     7 C   0.06658  0.14398   1.082  2.851  0.000
     8 C   0.06658  0.14398   1.082  2.851  0.000
     9 N  -0.03807 -0.27140   1.133  3.905  0.000
    10 N  -0.03807 -0.27140   1.133  3.905  0.000
    11 N  -0.03807 -0.27140   1.133  3.905  0.000
    12 N  -0.03807 -0.27140   1.133  3.905  0.000
    13 N  -0.03807 -0.27140   1.133  3.905  0.000
    14 N  -0.03807 -0.27140   1.133  3.905  0.000
    15 N  -0.03807 -0.27140   1.133  3.905  0.000
    16 N  -0.03807 -0.27140   1.133  3.905  0.000
    17 N  -0.03811 -0.27134   1.133  3.905  0.000
    18 N  -0.03811 -0.27134   1.133  3.905  0.000
    19 N  -0.03811 -0.27134   1.133  3.905  0.000
    20 N  -0.03811 -0.27134   1.133  3.905  0.000
    21 N  -0.03811 -0.27134   1.133  3.905  0.000
    22 N  -0.03811 -0.27134   1.133  3.905  0.000
    23 N  -0.03811 -0.27134   1.133  3.905  0.000
    24 N  -0.03811 -0.27134   1.133  3.905  0.000
    25 C   0.22920  0.39555   1.062  2.709  0.000
    26 C   0.22920  0.39555   1.062  2.709  0.000
    27 C   0.22920  0.39555   1.062  2.709  0.000
    28 C   0.22920  0.39555   1.062  2.709  0.000
    29 C   0.22920  0.39555   1.062  2.709  0.000
    30 C   0.22920  0.39555   1.062  2.709  0.000
    31 C   0.22920  0.39555   1.062  2.709  0.000
    32 C   0.22920  0.39555   1.062  2.709  0.000
    33 O  -0.39310 -0.43316   1.733  4.660  0.000
    34 O  -0.39310 -0.43316   1.733  4.660  0.000
    35 O  -0.39310 -0.43316   1.733  4.660  0.000
    36 O  -0.39310 -0.43316   1.733  4.660  0.000
    37 O  -0.39310 -0.43316   1.733  4.660  0.000
    38 O  -0.39310 -0.43316   1.733  4.660  0.000
    39 O  -0.39310 -0.43316   1.733  4.660  0.000
    40 O  -0.39310 -0.43316   1.733  4.660  0.000
    41 C   0.03345  0.05552   1.073  2.894  0.000
    42 C   0.03345  0.05552   1.073  2.894  0.000
    43 C   0.03345  0.05552   1.073  2.894  0.000
    44 C   0.03345  0.05552   1.073  2.894  0.000
    45 C   0.03345  0.05552   1.073  2.894  0.000
    46 C   0.03345  0.05552   1.073  2.894  0.000
    47 C   0.03345  0.05552   1.073  2.894  0.000
    48 C   0.03345  0.05552   1.073  2.894  0.000
    49 H   0.03664  0.11328   0.963  0.000  0.000
    50 H   0.03664  0.11328   0.963  0.000  0.000
    51 H   0.03664  0.11328   0.963  0.000  0.000
    52 H   0.03664  0.11328   0.963  0.000  0.000
    53 H   0.03664  0.11328   0.963  0.000  0.000
    54 H   0.03664  0.11328   0.963  0.000  0.000
    55 H   0.03664  0.11328   0.963  0.000  0.000
    56 H   0.03664  0.11328   0.963  0.000  0.000
    57 H   0.07436  0.16089   0.926  0.000  0.000
    58 H   0.07436  0.16089   0.926  0.000  0.000
    59 H   0.07436  0.16089   0.926  0.000  0.000
    60 H   0.07436  0.16089   0.926  0.000  0.000
    61 H   0.07436  0.16089   0.926  0.000  0.000
    62 H   0.07436  0.16089   0.926  0.000  0.000
    63 H   0.07436  0.16089   0.926  0.000  0.000
    64 H   0.07436  0.16089   0.926  0.000  0.000
    65 H   0.02894  0.10773   0.971  0.000  0.000
    66 H   0.02894  0.10773   0.971  0.000  0.000
    67 H   0.02894  0.10773   0.971  0.000  0.000
    68 H   0.02894  0.10773   0.971  0.000  0.000
    69 H   0.02899  0.10777   0.971  0.000  0.000
    70 H   0.02899  0.10777   0.971  0.000  0.000
    71 H   0.02899  0.10777   0.971  0.000  0.000
    72 H   0.02899  0.10777   0.971  0.000  0.000
    73 NE  0.00065 -0.00824   2.000  6.000 -0.000
 
 Wiberg/Mayer (AO) data. WBOs > 0.1 written file <wbo>
 largest (>0.05) Wiberg bond orders for each atom
           total WBO             WBO to atom ...
     1  C   3.976    N   17 0.996    N   21 0.996    C    5 0.951    H   69 0.950
     2  C   3.976    N   22 0.996    N   18 0.996    C    6 0.951    H   70 0.950
     3  C   3.976    N   19 0.996    N   23 0.996    C    7 0.951    H   71 0.950
     4  C   3.976    N   20 0.996    N   24 0.996    C    8 0.951    H   72 0.950
     5  C   3.976    N   13 0.996    N    9 0.996    C    1 0.951    H   65 0.950
     6  C   3.976    N   14 0.996    N   10 0.996    C    2 0.951    H   66 0.950
     7  C   3.976    N   15 0.996    N   11 0.996    C    3 0.951    H   67 0.950
     8  C   3.976    N   16 0.996    N   12 0.996    C    4 0.951    H   68 0.950
     9  N   3.414    C   25 1.096    C    5 0.996    C   41 0.996    O   33 0.150
    10  N   3.414    C   26 1.096    C    6 0.996    C   42 0.996    O   34 0.150
    11  N   3.414    C   27 1.096    C    7 0.996    C   43 0.996    O   35 0.150
    12  N   3.414    C   28 1.096    C    8 0.996    C   44 0.996    O   36 0.150
    13  N   3.414    C   29 1.096    C    5 0.996    C   45 0.996    O   37 0.150
    14  N   3.414    C   30 1.096    C    6 0.996    C   46 0.996    O   38 0.150
    15  N   3.414    C   31 1.096    C    7 0.996    C   47 0.996    O   39 0.150
    16  N   3.414    C   32 1.096    C    8 0.996    C   48 0.996    O   40 0.150
    17  N   3.414    C   25 1.096    C    1 0.996    C   42 0.996    O   33 0.150
    18  N   3.414    C   26 1.096    C    2 0.996    C   43 0.996    O   34 0.150
    19  N   3.414    C   27 1.096    C    3 0.996    C   48 0.996    O   35 0.150
    20  N   3.414    C   28 1.096    C    4 0.996    C   45 0.996    O   36 0.150
    21  N   3.414    C   29 1.096    C    1 0.996    C   46 0.996    O   37 0.150
    22  N   3.414    C   30 1.096    C    2 0.996    C   47 0.996    O   38 0.150
    23  N   3.414    C   31 1.096    C    3 0.996    C   44 0.996    O   39 0.150
    24  N   3.414    C   32 1.096    C    4 0.996    C   41 0.996    O   40 0.150
    25  C   3.964    O   33 1.708    N    9 1.096    N   17 1.096
    26  C   3.964    O   34 1.708    N   10 1.096    N   18 1.096
    27  C   3.964    O   35 1.708    N   11 1.096    N   19 1.096
    28  C   3.964    O   36 1.708    N   12 1.096    N   20 1.096
    29  C   3.964    O   37 1.708    N   13 1.096    N   21 1.096
    30  C   3.964    O   38 1.708    N   14 1.096    N   22 1.096
    31  C   3.964    O   39 1.708    N   15 1.096    N   23 1.096
    32  C   3.964    O   40 1.708    N   16 1.096    N   24 1.096
    33  O   2.066    C   25 1.708    N    9 0.150    N   17 0.150
    34  O   2.066    C   26 1.708    N   10 0.150    N   18 0.150
    35  O   2.066    C   27 1.708    N   11 0.150    N   19 0.150
    36  O   2.066    C   28 1.708    N   12 0.150    N   20 0.150
    37  O   2.066    C   29 1.708    N   13 0.150    N   21 0.150
    38  O   2.066    C   30 1.708    N   14 0.150    N   22 0.150
    39  O   2.066    C   31 1.708    N   15 0.150    N   23 0.150
    40  O   2.066    C   32 1.708    N   16 0.150    N   24 0.150
    41  C   3.968    N   24 0.996    N    9 0.996    H   49 0.965    H   57 0.959
    42  C   3.968    N   17 0.996    N   10 0.996    H   50 0.965    H   58 0.959
    43  C   3.968    N   18 0.996    N   11 0.996    H   51 0.965    H   59 0.959
    44  C   3.968    N   23 0.996    N   12 0.996    H   52 0.965    H   60 0.959
    45  C   3.968    N   20 0.996    N   13 0.996    H   53 0.965    H   61 0.959
    46  C   3.968    N   21 0.996    N   14 0.996    H   54 0.965    H   62 0.959
    47  C   3.968    N   22 0.996    N   15 0.996    H   55 0.965    H   63 0.959
    48  C   3.968    N   19 0.996    N   16 0.996    H   56 0.965    H   64 0.959
    49  H   0.998    C   41 0.965
    50  H   0.998    C   42 0.965
    51  H   0.998    C   43 0.965
    52  H   0.998    C   44 0.965
    53  H   0.998    C   45 0.965
    54  H   0.998    C   46 0.965
    55  H   0.998    C   47 0.965
    56  H   0.998    C   48 0.965
    57  H   0.994    C   41 0.959
    58  H   0.994    C   42 0.959
    59  H   0.994    C   43 0.959
    60  H   0.994    C   44 0.959
    61  H   0.994    C   45 0.959
    62  H   0.994    C   46 0.959
    63  H   0.994    C   47 0.959
    64  H   0.994    C   48 0.959
    65  H   0.999    C    5 0.950
    66  H   0.999    C    6 0.950
    67  H   0.999    C    7 0.950
    68  H   0.999    C    8 0.950
    69  H   0.999    C    1 0.950
    70  H   0.999    C    2 0.950
    71  H   0.999    C    3 0.950
    72  H   0.999    C    4 0.950
    73  NE  0.000
 density
 
 cube file module (SG, 7/16)
 cube_pthr     :   0.005
 cube_step     :   0.400
 non-zero P (%):  29.488   nmat:    7564
 Grid Boundaries (x y z) :
   11.8428025044009        11.8428025044009        8.99250995781640     
  -11.8428025044009       -11.8428025044009       -8.99250995781640     
 Total # of points                162000
 writing density.cub
 N    (numint) : ******
cpu  time for cube   41.79 s
wall time for cube   39.92 s
 
molecular dipole:
                 x           y           z       tot (Debye)
 q only:        0.000       0.000       0.000
   full:        0.000       0.000       0.000       0.000
molecular quadrupole (traceless):
                xx          xy          yy          xz          yz          zz
 q only:       51.711      -0.000      51.711      -0.000      -0.000    -103.422
  q+dip:       62.667       0.000      62.667      -0.000      -0.000    -125.334
   full:       63.646      -0.000      63.646      -0.000       0.000    -127.291
 SCC converged in                     14  cycles
 
SCC energy    :    -153.8121314
rep           :       1.4132856
ES            :       0.0012405
AES           :       0.0169013
disp          :      -0.1057901
XB            :       0.0000000
fix           :       0.0000000
total E       :    -152.5046359
atomizationE  :      19.6701626    12343.21
(atE without considerung molecular charge,
 total energy contains solvation terms)
H-L gap (eV)  :          5.0920
 
             =======================================
             |                                     |
             |    Approximate Normal Coordinate    |
             |   Rational Function Optimization    |
             |                                     |
             =======================================
Ref. for RF algo: F.Eckert, P.Pulay, H.-J.Werner
                  J.Comput.Chem. 18 (1997) 1473.
ANC idea implemented by S. Grimme in the 2000ers (unpublished)
restraining potential by S. Ehrlich.
dumping coords to <xtbopt.coord> and <xtbopt.log
 optlevel                         1
 Maxcycle                       365
 Maxmicro                        20
 Econv         1.000000000000000E-006
 Gconv         8.000000000000000E-004
 Maxdispl       1.00000000000000     
 Hlow          4.000000000000000E-003
 S6             20.0000000000000     
 Nvar                        213

generating ANC from model Hessian ...
 Shifting diagonal of input Hessian by   2.256170758566498E-003
 Lowest  eigenvalues of input Hessian
   -0.000000   -0.000000   -0.000000   -0.000000    0.000000    0.000000
    0.004000    0.005306    0.005392    0.006607    0.006607    0.006667
    0.006882    0.011494    0.011494    0.013156    0.015269    0.015570
 Highest eigenvalues
    2.452814    2.453949    2.456928    2.458457    2.458457    2.462903
 
cpu  time for ANC gen    0.24 s
wall time for ANC gen    0.15 s
................................................................................
.............................. CYCLE    1 ......................................
................................................................................
  q data taken from xtbrestart
  CAMM data taken from xtbrestart
   1   -153.8121314 -0.153812E+03  0.293E-05    5.09       0.0  T
   2   -153.8121314 -0.554508E-10  0.156E-05    5.09     750.0  T
   3   -153.8121314 -0.140119E-10  0.796E-06    5.09    1471.3  T
speedup  8.78
cpu  time for SCC    1.54 s
wall time for SCC    0.18 s
speedup  7.81
cpu  time for grad    1.62 s
wall time for grad    0.21 s
 E :   -152.50463594  G :  0.091772    pred/act E change:  0.000D+00 -0.131D-09
Maxdispl :   0.1825   ||displ|| :   0.3940   Lambda : -0.198D-01
Largest |displ|/coords:  0.1825 (  49)  0.1808 (  11)  0.1748 (  73)
................................................................................
.............................. CYCLE    2 ......................................
................................................................................
   1   -153.8833100 -0.153883E+03  0.172E-01    5.24       0.0  T
   2   -153.8834498 -0.139776E-03  0.981E-02    5.22       1.0  T
   3   -153.8833928  0.570543E-04  0.436E-02    5.23       1.0  T
   4   -153.8834948 -0.102040E-03  0.766E-03    5.22       1.5  T
   5   -153.8834957 -0.950730E-06  0.377E-03    5.22       3.1  T
   6   -153.8834959 -0.171733E-06  0.160E-03    5.22       7.3  T
   7   -153.8834960 -0.417284E-07  0.584E-04    5.22      20.0  T
   8   -153.8834960 -0.650269E-08  0.176E-04    5.22      66.7  T
speedup  8.88
cpu  time for SCC    2.57 s
wall time for SCC    0.29 s
speedup  8.90
cpu  time for grad    1.50 s
wall time for grad    0.17 s
 E :   -152.51825846  G :  0.030828    pred/act E change:  0.000D+00 -0.136D-01
Maxdispl :   0.1681   ||displ|| :   0.3349   Lambda : -0.621D-02
Largest |displ|/coords:  0.1681 (  11)  0.1511 (  49)  0.1427 (  45)
................................................................................
.............................. CYCLE    3 ......................................
................................................................................
   1   -153.9191890 -0.153919E+03  0.163E-01    5.27       0.0  T
   2   -153.9192990 -0.109984E-03  0.900E-02    5.26       1.0  T
   3   -153.9193013 -0.232449E-05  0.198E-02    5.27       1.0  T
   4   -153.9193157 -0.144593E-04  0.721E-03    5.26       1.6  T
   5   -153.9193168 -0.110015E-05  0.277E-03    5.26       4.2  T
   6   -153.9193170 -0.174923E-06  0.153E-03    5.26       7.7  T
   7   -153.9193171 -0.323979E-07  0.408E-04    5.26      28.7  T
   8   -153.9193171 -0.574525E-08  0.163E-04    5.26      72.0  T
speedup  7.99
cpu  time for SCC    3.41 s
wall time for SCC    0.43 s
speedup 10.83
cpu  time for grad    1.90 s
wall time for grad    0.18 s
 E :   -152.52190518  G :  0.013478    pred/act E change: -0.114D-01 -0.365D-02
Maxdispl :   0.0743   ||displ|| :   0.1195   Lambda : -0.477D-03
Largest |displ|/coords:  0.0743 (  11)  0.0571 (  29)  0.0479 (  45)
................................................................................
.............................. CYCLE    4 ......................................
................................................................................
   1   -153.9215140 -0.153922E+03  0.443E-02    5.25       0.0  T
   2   -153.9215283 -0.143159E-04  0.237E-02    5.25       1.0  T
   3   -153.9215289 -0.617860E-06  0.619E-03    5.25       1.9  T
   4   -153.9215300 -0.109002E-05  0.243E-03    5.25       4.8  T
   5   -153.9215302 -0.188488E-06  0.785E-04    5.25      14.9  T
   6   -153.9215302 -0.237280E-07  0.389E-04    5.25      30.1  T
   7   -153.9215302 -0.130873E-08  0.125E-04    5.25      93.3  T
speedup  8.42
cpu  time for SCC    2.33 s
wall time for SCC    0.28 s
speedup  8.48
cpu  time for grad    1.44 s
wall time for grad    0.17 s
 E :   -152.52217519  G :  0.003304    pred/act E change: -0.345D-02 -0.270D-03
Maxdispl :   0.0246   ||displ|| :   0.0358   Lambda : -0.343D-04
Largest |displ|/coords:  0.0246 (  11)  0.0223 (  20)  0.0110 (  45)
................................................................................
.............................. CYCLE    5 ......................................
................................................................................
   1   -153.9210484 -0.153921E+03  0.878E-03    5.25       0.0  T
   2   -153.9210492 -0.790149E-06  0.463E-03    5.25       2.5  T
   3   -153.9210492 -0.412082E-07  0.178E-03    5.25       6.6  T
   4   -153.9210493 -0.492300E-07  0.427E-04    5.25      27.4  T
   5   -153.9210493 -0.345960E-08  0.144E-04    5.25      81.0  T
   6   -153.9210493 -0.939508E-09  0.473E-05    5.25     247.6  T
speedup  8.71
cpu  time for SCC    2.23 s
wall time for SCC    0.26 s
speedup  8.46
cpu  time for grad    1.65 s
wall time for grad    0.19 s
 E :   -152.52219737  G :  0.001169    pred/act E change: -0.242D-03 -0.222D-04
Maxdispl :   0.0171   ||displ|| :   0.0254   Lambda : -0.882D-05
Largest |displ|/coords:  0.0171 (  20)  0.0169 (  11)  0.0069 (  29)
................................................................................
.............................. CYCLE    6 ......................................
................................................................................
   1   -153.9207582 -0.153921E+03  0.499E-03    5.25       0.0  T
   2   -153.9207584 -0.164811E-06  0.293E-03    5.25       4.0  T
   3   -153.9207584  0.156699E-07  0.117E-03    5.25      10.0  T
   4   -153.9207584 -0.393712E-07  0.185E-04    5.25      63.1  T
   5   -153.9207584 -0.195885E-08  0.807E-05    5.25     145.1  T
speedup  8.80
cpu  time for SCC    2.01 s
wall time for SCC    0.23 s
speedup  8.54
cpu  time for grad    1.64 s
wall time for grad    0.19 s
 E :   -152.52220282  G :  0.000630    pred/act E change: -0.172D-04 -0.545D-05
Maxdispl :   0.0081   ||displ|| :   0.0118   Lambda : -0.169D-05
Largest |displ|/coords:  0.0081 (  20)  0.0069 (  11)  0.0048 (  29)
................................................................................
.............................. CYCLE    7 ......................................
................................................................................
   1   -153.9208396 -0.153921E+03  0.254E-03    5.25       0.0  T
   2   -153.9208396 -0.986194E-08  0.152E-03    5.25       7.7  T
   3   -153.9208396  0.256276E-08  0.276E-04    5.25      42.5  T
   4   -153.9208396 -0.442643E-08  0.682E-05    5.25     171.6  T
   5   -153.9208396 -0.109367E-09  0.387E-05    5.25     302.4  T
speedup  8.90
cpu  time for SCC    2.06 s
wall time for SCC    0.23 s
speedup  8.35
cpu  time for grad    1.66 s
wall time for grad    0.20 s
 E :   -152.52220391  G :  0.000346    pred/act E change: -0.441D-05 -0.110D-05
Maxdispl :   0.0038   ||displ|| :   0.0051   Lambda : -0.430D-06
Largest |displ|/coords:  0.0038 (  20)  0.0023 (  11)  0.0021 (  29)
................................................................................
.............................. CYCLE    8 ......................................
................................................................................
   1   -153.9209323 -0.153921E+03  0.119E-03    5.25       0.0  T
   2   -153.9209323 -0.805522E-08  0.683E-04    5.25      17.1  T
   3   -153.9209323  0.175959E-08  0.239E-04    5.25      49.0  T
   4   -153.9209323 -0.298002E-08  0.587E-05    5.25     199.5  T
   5   -153.9209323 -0.120281E-09  0.216E-05    5.25     542.7  T
speedup  9.67
cpu  time for SCC    2.33 s
wall time for SCC    0.24 s
speedup  9.79
cpu  time for grad    1.99 s
wall time for grad    0.20 s
 E :   -152.52220417  G :  0.000172    pred/act E change: -0.847D-06 -0.261D-06
Maxdispl :   0.0010   ||displ|| :   0.0012   Lambda : -0.575D-07
Largest |displ|/coords:  0.0010 (  20)  0.0004 (  49)  0.0003 (  45)
ancopt converged in          8 cycles
total energy gain (kcal):    -11.0242
================
 final structure:
================
    73
       -152.52220417
C          -3.16572760578864   -1.60786900156131   -0.00000000029313
C           1.60786900239653   -3.16572760725733    0.00000000023050
C           3.16572760598526    1.60786900168244    0.00000000043273
C          -1.60786900235121    3.16572760719676    0.00000000053097
C          -3.54906658555428   -0.10463814474646    0.00000000005968
C           0.10463814522088   -3.54906658633510    0.00000000042336
C           3.54906658564971    0.10463814483404    0.00000000012328
C          -0.10463814512768    3.54906658607058    0.00000000023440
N          -2.96631390144428    0.38490040669598   -1.21804857506730
N          -0.38490040662905   -2.96631389961678   -1.21804857407647
N           2.96631390254697   -0.38490040697280   -1.21804857738651
N           0.38490040665069    2.96631389967263    1.21804857446570
N          -2.96631390122116    0.38490040695512    1.21804857648507
N          -0.38490040580863   -2.96631390396927    1.21804857729996
N           2.96631390006056   -0.38490040679238    1.21804857417383
N           0.38490040557045    2.96631390318794   -1.21804857665858
N          -2.41973634781701   -1.75855476135331   -1.21806781130477
N           1.75855476164467   -2.41973634677026   -1.21806780972061
N           2.41973634354320    1.75855475990202   -1.21806780793467
N          -1.75855476205748    2.41973634774574    1.21806781091211
N          -2.41973634274976   -1.75855475964072    1.21806780796111
N           1.75855476135199   -2.41973634716410    1.21806780950683
N           2.41973634768311    1.75855476120981    1.21806781147623
N          -1.75855476139263    2.41973634627885   -1.21806780825226
C          -2.43407978147386   -0.62078826468611   -1.99522100166947
C           0.62078826483217   -2.43407977885774   -1.99522099942684
C           2.43407977910788    0.62078826422671   -1.99522099937382
C          -0.62078826423004    2.43407977720741    1.99522099961490
C          -2.43407978001057   -0.62078826418300    1.99522099887744
C           0.62078826550079   -2.43407978082868    1.99522099984452
C           2.43407978240746    0.62078826484901    1.99522100093891
C          -0.62078826601010    2.43407978254375   -1.99522100037604
O          -2.09452901557825   -0.53419337786583   -3.13864877507052
O           0.53419337855505   -2.09452900987703   -3.13864877189087
O           2.09452900894122    0.53419338268378   -3.13864877259316
O          -0.53419337684618    2.09452900552675    3.13864877135895
O          -2.09452901201026   -0.53419338218901    3.13864877295655
O           0.53419338195935   -2.09452901043572    3.13864877280014
O           2.09452901801271    0.53419337826458    3.13864877519556
O          -0.53419338430505    2.09452901560534   -3.13864877422860
C          -2.94961168868781    1.75082674255589   -1.65979576964916
C          -1.75082674235701   -2.94961168866794   -1.65979576938879
C           2.94961169007480   -1.75082674344634   -1.65979576882103
C           1.75082674263149    2.94961168867452    1.65979576935619
C          -2.94961168980457    1.75082674326784    1.65979576942488
C          -1.75082674211678   -2.94961168843684    1.65979576954269
C           2.94961168854046   -1.75082674235579    1.65979576999086
C           1.75082674177776    2.94961168834573   -1.65979576958498
H          -3.84496808515313    2.28226304926159   -1.31679008291055
H          -2.28226304822259   -3.84496808473885   -1.31679008004762
H           3.84496808507456   -2.28226304948303   -1.31679007690026
H           2.28226304833201    3.84496808456440    1.31679007932597
H          -3.84496808517515    2.28226304898142    1.31679007820087
H          -2.28226304988766   -3.84496808346145    1.31679008062404
H           3.84496808498107   -2.28226304885477    1.31679008332521
H           2.28226304951508    3.84496808371779   -1.31679008157336
H          -2.89458247822449    1.71816013503529   -2.75689609780324
H          -1.71816013490725   -2.89458248247072   -2.75689609784729
H           2.89458248546351   -1.71816013970896   -2.75689609756982
H           1.71816013573891    2.89458248294376    2.75689609789072
H          -2.89458248478812    1.71816013776355    2.75689609808909
H          -1.71816013678875   -2.89458247975181    2.75689609803166
H           2.89458247817211   -1.71816013355243    2.75689609810588
H           1.71816013589190    2.89458247899159   -2.75689609798352
H          -4.64298985634808    0.06894613267392    0.00000000058548
H          -0.06894613267942   -4.64298985706043   -0.00000000068341
H           4.64298985640269   -0.06894613276394   -0.00000000090297
H           0.06894613274957    4.64298985684123    0.00000000089582
H          -4.04294124386425   -2.28410653035788    0.00000000036265
H           2.28410653066601   -4.04294124573681   -0.00000000064962
H           4.04294124410314    2.28410653037172   -0.00000000027915
H          -2.28410653049084    4.04294124587822    0.00000000101984
NE          0.00000000016627   -0.00000000025677   -0.00000000275617
 
 Bond Distances (Angstroems)
 ---------------------------
C1-C5=1.5513         C1-N17=1.4363        C1-N21=1.4363        C1-H69=1.1076        C2-C6=1.5513         C2-N18=1.4363        
C2-N22=1.4363        C2-H70=1.1076        C3-C7=1.5513         C3-N19=1.4363        C3-N23=1.4363        C3-H71=1.1076        
C4-C8=1.5513         C4-N20=1.4363        C4-N24=1.4363        C4-H72=1.1076        C5-C1=1.5513         C5-N9=1.4363         
C5-N13=1.4363        C5-H65=1.1076        C6-C2=1.5513         C6-N10=1.4363        C6-N14=1.4363        C6-H66=1.1076        
C7-C3=1.5513         C7-N11=1.4363        C7-N15=1.4363        C7-H67=1.1076        C8-C4=1.5513         C8-N12=1.4363        
C8-N16=1.4363        C8-H68=1.1076        N9-C5=1.4363         N9-C25=1.3779        N9-C41=1.4357        N10-C6=1.4363        
N10-C26=1.3779       N10-C42=1.4357       N11-C7=1.4363        N11-C27=1.3779       N11-C43=1.4357       N12-C8=1.4363        
N12-C28=1.3779       N12-C44=1.4357       N13-C5=1.4363        N13-C29=1.3779       N13-C45=1.4357       N14-C6=1.4363        
N14-C30=1.3779       N14-C46=1.4357       N15-C7=1.4363        N15-C31=1.3779       N15-C47=1.4357       N16-C8=1.4363        
N16-C32=1.3779       N16-C48=1.4357       N17-C1=1.4363        N17-C25=1.3779       N17-C42=1.4357       N18-C2=1.4363        
N18-C26=1.3779       N18-C43=1.4357       N19-C3=1.4363        N19-C27=1.3779       N19-C48=1.4357       N20-C4=1.4363        
N20-C28=1.3779       N20-C45=1.4357       N21-C1=1.4363        N21-C29=1.3779       N21-C46=1.4357       N22-C2=1.4363        
N22-C30=1.3779       N22-C47=1.4357       N23-C3=1.4363        N23-C31=1.3779       N23-C44=1.4357       N24-C4=1.4363        
N24-C32=1.3779       N24-C41=1.4357       C25-N9=1.3779        C25-N17=1.3779       C25-O33=1.1959       C26-N10=1.3779       
C26-N18=1.3779       C26-O34=1.1959       C27-N11=1.3779       C27-N19=1.3779       C27-O35=1.1959       C28-N12=1.3779       
C28-N20=1.3779       C28-O36=1.1959       C29-N13=1.3779       C29-N21=1.3779       C29-O37=1.1959       C30-N14=1.3779       
C30-N22=1.3779       C30-O38=1.1959       C31-N15=1.3779       C31-N23=1.3779       C31-O39=1.1959       C32-N16=1.3779       
C32-N24=1.3779       C32-O40=1.1959       O33-C25=1.1959       O34-C26=1.1959       O35-C27=1.1959       O36-C28=1.1959       
O37-C29=1.1959       O38-C30=1.1959       O39-C31=1.1959       O40-C32=1.1959       C41-N9=1.4357        C41-N24=1.4357       
C41-H49=1.0962       C41-H57=1.0990       C42-N10=1.4357       C42-N17=1.4357       C42-H50=1.0962       C42-H58=1.0990       
C43-N11=1.4357       C43-N18=1.4357       C43-H51=1.0962       C43-H59=1.0990       C44-N12=1.4357       C44-N23=1.4357       
C44-H52=1.0962       C44-H60=1.0990       C45-N13=1.4357       C45-N20=1.4357       C45-H53=1.0962       C45-H61=1.0990       
C46-N14=1.4357       C46-N21=1.4357       C46-H54=1.0962       C46-H62=1.0990       C47-N15=1.4357       C47-N22=1.4357       
C47-H55=1.0962       C47-H63=1.0990       C48-N16=1.4357       C48-N19=1.4357       C48-H56=1.0962       C48-H64=1.0990       
H49-C41=1.0962       H50-C42=1.0962       H51-C43=1.0962       H52-C44=1.0962       H53-C45=1.0962       H54-C46=1.0962       
H55-C47=1.0962       H56-C48=1.0962       H57-C41=1.0990       H58-C42=1.0990       H59-C43=1.0990       H60-C44=1.0990       
H61-C45=1.0990       H62-C46=1.0990       H63-C47=1.0990       H64-C48=1.0990       H65-C5=1.1076        H66-C6=1.1076        
H67-C7=1.1076        H68-C8=1.1076        H69-C1=1.1076        H70-C2=1.1076        H71-C3=1.1076        H72-C4=1.1076        
 C  H  Rav=1.1009 sigma=0.0048  Rmin=1.0962  Rmax=1.1076    24
 C  C  Rav=1.5513 sigma=0.0000  Rmin=1.5513  Rmax=1.5513     4
 N  C  Rav=1.4166 sigma=0.0274  Rmin=1.3779  Rmax=1.4363    48
 O  C  Rav=1.1959 sigma=0.0000  Rmin=1.1959  Rmax=1.1959     8
 
 selected bond angles (degree)
 --------------------
N17-C1-C5=103.30               N21-C1-C5=103.30               N21-C1-N17=116.01              H69-C1-C5=113.32               
H69-C1-N17=110.32              H69-C1-N21=110.32              N18-C2-C6=103.30               N22-C2-C6=103.30               
N22-C2-N18=116.01              H70-C2-C6=113.32               H70-C2-N18=110.32              H70-C2-N22=110.32              
N19-C3-C7=103.30               N23-C3-C7=103.30               N23-C3-N19=116.01              H71-C3-C7=113.32               
H71-C3-N19=110.32              H71-C3-N23=110.32              N20-C4-C8=103.30               N24-C4-C8=103.30               
N24-C4-N20=116.01              H72-C4-C8=113.32               H72-C4-N20=110.32              H72-C4-N24=110.32              
N9-C5-C1=103.30                N13-C5-C1=103.30               N13-C5-N9=116.00               H65-C5-C1=113.32               
H65-C5-N9=110.32               H65-C5-N13=110.32              N10-C6-C2=103.30               N14-C6-C2=103.30               
N14-C6-N10=116.00              H66-C6-C2=113.32               H66-C6-N10=110.32              H66-C6-N14=110.32              
N11-C7-C3=103.30               N15-C7-C3=103.30               N15-C7-N11=116.00              H67-C7-C3=113.32               
H67-C7-N11=110.32              H67-C7-N15=110.32              N12-C8-C4=103.30               N16-C8-C4=103.30               
N16-C8-N12=116.00              H68-C8-C4=113.32               H68-C8-N12=110.32              H68-C8-N16=110.32              
C25-N9-C5=112.72               C41-N9-C5=126.15               C41-N9-C25=121.09              C26-N10-C6=112.72              
C42-N10-C6=126.15              C42-N10-C26=121.09             
 
 selected dihedral angles (degree)
 ---------------------------------
N9-C5-C1-N17=  0.00           N9-C5-C1-N21=121.25           N9-C5-C1-H69=240.62           N13-C5-C1-N17=238.75          
N13-C5-C1-N21=  0.00          N13-C5-C1-H69=119.38          H65-C5-C1-N17=119.37          H65-C5-C1-N21=240.63          
H65-C5-C1-H69=  0.00          N10-C6-C2-N18=  0.00          N10-C6-C2-N22=121.25          N10-C6-C2-H70=240.62          
N14-C6-C2-N18=238.75          N14-C6-C2-N22=  0.00          N14-C6-C2-H70=119.38          H66-C6-C2-N18=119.37          
H66-C6-C2-N22=240.63          H66-C6-C2-H70=  0.00          N11-C7-C3-N19=  0.00          N11-C7-C3-N23=121.25          
N11-C7-C3-H71=240.62          N15-C7-C3-N19=238.75          N15-C7-C3-N23=  0.00          N15-C7-C3-H71=119.38          
H67-C7-C3-N19=119.37          H67-C7-C3-N23=240.63          H67-C7-C3-H71=  0.00          N12-C8-C4-N20=  0.00          
N12-C8-C4-N24=238.75          N12-C8-C4-H72=119.38          N16-C8-C4-N20=121.25          N16-C8-C4-N24=  0.00          
N16-C8-C4-H72=240.62          H68-C8-C4-N20=240.63          H68-C8-C4-N24=119.37          H68-C8-C4-H72=  0.00          
C25-N9-C5-C1=  6.70           C25-N9-C5-N13=118.93          C25-N9-C5-H65=245.28          C41-N9-C5-C1=184.53           
C41-N9-C5-N13=296.75          C41-N9-C5-H65= 63.11          C26-N10-C6-C2=  6.70          C26-N10-C6-N14=118.93         
C26-N10-C6-H66=245.28         C42-N10-C6-C2=184.53          C42-N10-C6-N14=296.75         C42-N10-C6-H66= 63.11         
 
 CMA Distance (Angstroems)
 ---------------------------
R(CMA):  0.0000
 
             =======================================
             |                                     |
             |        S C C  calculation           |
             |                                     |
             =======================================
 #proc     :                      1
 Ncao      :                    226
 Nao       :                    225
 Nel       :                    256
 T(el)     :   300.0
 intcut    :    25.0
 scfconv   :  0.100E-05
   qconv   :  0.200E-04
 intneglect:  0.100E-07
 broydamp  :      0.400
 Nshell    :                    123
 iter      E             dE          RMSdq      gap      omega  full diag
   1   -153.9209323 -0.153921E+03  0.811E-06    5.25       0.0  T
   2   -153.9209323 -0.321165E-11  0.437E-06    5.25    2679.2  T
   3   -153.9209323 -0.369482E-12  0.234E-06    5.25    5002.4  T
speedup  8.52
cpu  time for SCC    1.56 s
wall time for SCC    0.18 s

          eigenvalues
 #    :         116        117        118        119        120        121        122        123
 occ. :        2.000      2.000      2.000      2.000      2.000      2.000      2.000      2.000
 eps  :       -10.353    -10.353    -10.348    -10.292    -10.256    -10.185    -10.115    -10.090
 #    :         124        125        126        127        128        129        130        131
 occ. :        2.000      2.000      2.000      2.000      2.000      0.000      0.000      0.000
 eps  :       -10.090    -10.074    -10.074    -10.011     -9.904     -4.655     -4.601     -4.443
 #    :         132        133        134        135        136        137        138        139
 occ. :        0.000      0.000      0.000      0.000      0.000      0.000      0.000      0.000
 eps  :        -4.443     -4.396     -4.396     -4.326     -4.229     -4.208     -4.143     -4.141
 
 
 Mulliken/CM5 charges        n(s)   n(p)   n(d)
     1 C   0.06806  0.14962   1.077  2.855  0.000
     2 C   0.06806  0.14962   1.077  2.855  0.000
     3 C   0.06806  0.14962   1.077  2.855  0.000
     4 C   0.06806  0.14962   1.077  2.855  0.000
     5 C   0.06806  0.14962   1.077  2.855  0.000
     6 C   0.06806  0.14962   1.077  2.855  0.000
     7 C   0.06806  0.14962   1.077  2.855  0.000
     8 C   0.06806  0.14962   1.077  2.855  0.000
     9 N  -0.03408 -0.27446   1.124  3.910  0.000
    10 N  -0.03408 -0.27446   1.124  3.910  0.000
    11 N  -0.03408 -0.27446   1.124  3.910  0.000
    12 N  -0.03408 -0.27446   1.124  3.910  0.000
    13 N  -0.03408 -0.27446   1.124  3.910  0.000
    14 N  -0.03408 -0.27446   1.124  3.910  0.000
    15 N  -0.03408 -0.27446   1.124  3.910  0.000
    16 N  -0.03408 -0.27446   1.124  3.910  0.000
    17 N  -0.03408 -0.27446   1.124  3.910  0.000
    18 N  -0.03408 -0.27446   1.124  3.910  0.000
    19 N  -0.03408 -0.27446   1.124  3.910  0.000
    20 N  -0.03408 -0.27446   1.124  3.910  0.000
    21 N  -0.03408 -0.27446   1.124  3.910  0.000
    22 N  -0.03408 -0.27446   1.124  3.910  0.000
    23 N  -0.03408 -0.27446   1.124  3.910  0.000
    24 N  -0.03408 -0.27446   1.124  3.910  0.000
    25 C   0.23367  0.40708   1.052  2.715  0.000
    26 C   0.23367  0.40708   1.052  2.715  0.000
    27 C   0.23367  0.40708   1.052  2.715  0.000
    28 C   0.23367  0.40708   1.052  2.715  0.000
    29 C   0.23367  0.40708   1.052  2.715  0.000
    30 C   0.23367  0.40708   1.052  2.715  0.000
    31 C   0.23367  0.40708   1.052  2.715  0.000
    32 C   0.23367  0.40708   1.052  2.715  0.000
    33 O  -0.39968 -0.44178   1.725  4.674  0.000
    34 O  -0.39968 -0.44178   1.725  4.674  0.000
    35 O  -0.39968 -0.44178   1.725  4.674  0.000
    36 O  -0.39968 -0.44178   1.725  4.674  0.000
    37 O  -0.39968 -0.44178   1.725  4.674  0.000
    38 O  -0.39968 -0.44178   1.725  4.674  0.000
    39 O  -0.39968 -0.44178   1.725  4.674  0.000
    40 O  -0.39968 -0.44178   1.725  4.674  0.000
    41 C   0.03208  0.05863   1.071  2.896  0.000
    42 C   0.03208  0.05863   1.071  2.896  0.000
    43 C   0.03208  0.05863   1.071  2.896  0.000
    44 C   0.03208  0.05863   1.071  2.896  0.000
    45 C   0.03208  0.05863   1.071  2.896  0.000
    46 C   0.03208  0.05863   1.071  2.896  0.000
    47 C   0.03208  0.05863   1.071  2.896  0.000
    48 C   0.03208  0.05863   1.071  2.896  0.000
    49 H   0.03512  0.11147   0.965  0.000  0.000
    50 H   0.03512  0.11147   0.965  0.000  0.000
    51 H   0.03512  0.11147   0.965  0.000  0.000
    52 H   0.03512  0.11147   0.965  0.000  0.000
    53 H   0.03512  0.11147   0.965  0.000  0.000
    54 H   0.03512  0.11147   0.965  0.000  0.000
    55 H   0.03512  0.11147   0.965  0.000  0.000
    56 H   0.03512  0.11147   0.965  0.000  0.000
    57 H   0.07358  0.16205   0.926  0.000  0.000
    58 H   0.07358  0.16205   0.926  0.000  0.000
    59 H   0.07358  0.16205   0.926  0.000  0.000
    60 H   0.07358  0.16205   0.926  0.000  0.000
    61 H   0.07358  0.16205   0.926  0.000  0.000
    62 H   0.07358  0.16205   0.926  0.000  0.000
    63 H   0.07358  0.16205   0.926  0.000  0.000
    64 H   0.07358  0.16205   0.926  0.000  0.000
    65 H   0.02520  0.10299   0.975  0.000  0.000
    66 H   0.02520  0.10299   0.975  0.000  0.000
    67 H   0.02520  0.10299   0.975  0.000  0.000
    68 H   0.02520  0.10299   0.975  0.000  0.000
    69 H   0.02521  0.10300   0.975  0.000  0.000
    70 H   0.02521  0.10300   0.975  0.000  0.000
    71 H   0.02521  0.10300   0.975  0.000  0.000
    72 H   0.02521  0.10300   0.975  0.000  0.000
    73 NE  0.00087 -0.00917   2.000  6.000 -0.000
 
 Wiberg/Mayer (AO) data. WBOs > 0.1 written file <wbo>
 largest (>0.05) Wiberg bond orders for each atom
           total WBO             WBO to atom ...
     1  C   3.978    N   17 0.995    N   21 0.995    C    5 0.957    H   69 0.948
     2  C   3.978    N   22 0.995    N   18 0.995    C    6 0.957    H   70 0.948
     3  C   3.978    N   19 0.995    N   23 0.995    C    7 0.957    H   71 0.948
     4  C   3.978    N   24 0.995    N   20 0.995    C    8 0.957    H   72 0.948
     5  C   3.978    N    9 0.995    N   13 0.995    C    1 0.957    H   65 0.948
     6  C   3.978    N   14 0.995    N   10 0.995    C    2 0.957    H   66 0.948
     7  C   3.978    N   15 0.995    N   11 0.995    C    3 0.957    H   67 0.948
     8  C   3.978    N   12 0.995    N   16 0.995    C    4 0.957    H   68 0.948
     9  N   3.418    C   25 1.100    C   41 0.997    C    5 0.995    O   33 0.150
    10  N   3.418    C   26 1.100    C   42 0.997    C    6 0.995    O   34 0.150
    11  N   3.418    C   27 1.100    C   43 0.997    C    7 0.995    O   35 0.150
    12  N   3.418    C   28 1.100    C   44 0.997    C    8 0.995    O   36 0.150
    13  N   3.418    C   29 1.100    C   45 0.997    C    5 0.995    O   37 0.150
    14  N   3.418    C   30 1.100    C   46 0.997    C    6 0.995    O   38 0.150
    15  N   3.418    C   31 1.100    C   47 0.997    C    7 0.995    O   39 0.150
    16  N   3.418    C   32 1.100    C   48 0.997    C    8 0.995    O   40 0.150
    17  N   3.418    C   25 1.100    C   42 0.997    C    1 0.995    O   33 0.150
    18  N   3.418    C   26 1.100    C   43 0.997    C    2 0.995    O   34 0.150
    19  N   3.418    C   27 1.100    C   48 0.997    C    3 0.995    O   35 0.150
    20  N   3.418    C   28 1.100    C   45 0.997    C    4 0.995    O   36 0.150
    21  N   3.418    C   29 1.100    C   46 0.997    C    1 0.995    O   37 0.150
    22  N   3.418    C   30 1.100    C   47 0.997    C    2 0.995    O   38 0.150
    23  N   3.418    C   31 1.100    C   44 0.997    C    3 0.995    O   39 0.150
    24  N   3.418    C   32 1.100    C   41 0.997    C    4 0.995    O   40 0.150
    25  C   3.966    O   33 1.701    N    9 1.100    N   17 1.100
    26  C   3.966    O   34 1.701    N   10 1.100    N   18 1.100
    27  C   3.966    O   35 1.701    N   11 1.100    N   19 1.100
    28  C   3.966    O   36 1.701    N   12 1.100    N   20 1.100
    29  C   3.966    O   37 1.701    N   13 1.100    N   21 1.100
    30  C   3.966    O   38 1.701    N   14 1.100    N   22 1.100
    31  C   3.966    O   39 1.701    N   15 1.100    N   23 1.100
    32  C   3.966    O   40 1.701    N   16 1.100    N   24 1.100
    33  O   2.061    C   25 1.701    N    9 0.150    N   17 0.150
    34  O   2.061    C   26 1.701    N   10 0.150    N   18 0.150
    35  O   2.061    C   27 1.701    N   11 0.150    N   19 0.150
    36  O   2.061    C   28 1.701    N   12 0.150    N   20 0.150
    37  O   2.061    C   29 1.701    N   13 0.150    N   21 0.150
    38  O   2.061    C   30 1.701    N   14 0.150    N   22 0.150
    39  O   2.061    C   31 1.701    N   15 0.150    N   23 0.150
    40  O   2.061    C   32 1.701    N   16 0.150    N   24 0.150
    41  C   3.970    N    9 0.997    N   24 0.997    H   49 0.965    H   57 0.957
    42  C   3.970    N   10 0.997    N   17 0.997    H   50 0.965    H   58 0.957
    43  C   3.970    N   11 0.997    N   18 0.997    H   51 0.965    H   59 0.957
    44  C   3.970    N   12 0.997    N   23 0.997    H   52 0.965    H   60 0.957
    45  C   3.970    N   13 0.997    N   20 0.997    H   53 0.965    H   61 0.957
    46  C   3.970    N   14 0.997    N   21 0.997    H   54 0.965    H   62 0.957
    47  C   3.970    N   15 0.997    N   22 0.997    H   55 0.965    H   63 0.957
    48  C   3.970    N   16 0.997    N   19 0.997    H   56 0.965    H   64 0.957
    49  H   0.998    C   41 0.965
    50  H   0.998    C   42 0.965
    51  H   0.998    C   43 0.965
    52  H   0.998    C   44 0.965
    53  H   0.998    C   45 0.965
    54  H   0.998    C   46 0.965
    55  H   0.998    C   47 0.965
    56  H   0.998    C   48 0.965
    57  H   0.994    C   41 0.957
    58  H   0.994    C   42 0.957
    59  H   0.994    C   43 0.957
    60  H   0.994    C   44 0.957
    61  H   0.994    C   45 0.957
    62  H   0.994    C   46 0.957
    63  H   0.994    C   47 0.957
    64  H   0.994    C   48 0.957
    65  H   0.999    C    5 0.948
    66  H   0.999    C    6 0.948
    67  H   0.999    C    7 0.948
    68  H   0.999    C    8 0.948
    69  H   0.999    C    1 0.948
    70  H   0.999    C    2 0.948
    71  H   0.999    C    3 0.948
    72  H   0.999    C    4 0.948
    73  NE  0.000
 density
 
 cube file module (SG, 7/16)
 cube_pthr     :   0.005
 cube_step     :   0.400
 non-zero P (%):  29.410   nmat:    7544
 Grid Boundaries (x y z) :
   11.7739784139679        11.7739784147966        8.93118603621697     
  -11.7739784138647       -11.7739784152109       -8.93118603598069     
 Total # of points                156645
 writing density.cub
 N    (numint) : ******
cpu  time for cube   41.06 s
wall time for cube   39.69 s
 
molecular dipole:
                 x           y           z       tot (Debye)
 q only:        0.000       0.000      -0.000
   full:        0.000      -0.000      -0.000       0.000
molecular quadrupole (traceless):
                xx          xy          yy          xz          yz          zz
 q only:       50.791      -0.000      50.791      -0.000       0.000    -101.581
  q+dip:       62.730      -0.000      62.730      -0.000       0.000    -125.460
   full:       63.630      -0.000      63.630      -0.000       0.000    -127.260
 SCC converged in                      3  cycles
 
SCC energy    :    -153.9209323
rep           :       1.5069641
ES            :      -0.0046992
AES           :       0.0140983
disp          :      -0.1082359
XB            :       0.0000000
fix           :       0.0000000
total E       :    -152.5222042
atomizationE  :      19.6877309    12354.24
(atE without considerung molecular charge,
 total energy contains solvation terms)
H-L gap (eV)  :          5.2494
 !!!!!!!!!!!!!!!!!!!!!!!!!!!!!!!!!!!
 ! Note: the input coordinates are !
 ! NOT overwritten. The optimized  !
 ! ones are on file <xtbopt.coord> !
 ! (or on <xtbopt.xyz> if it was a !
 ! xyz file)                       !
 !!!!!!!!!!!!!!!!!!!!!!!!!!!!!!!!!!!
 
speedup  1.42
cpu  time for all    2 m  0.5 s
wall time for all    1 m 24.8 s
