 
        ______________________________________
       |                                      |
       |           ==================         |
       |                 x T B                |
       |           ==================         |
       |               S. Grimme              |
       |        Universitaet Bonn, MCTC       |
       |         2015-18, Version 5.0         |
       |      Sat Jan 20 11:00:33 CET 2018    |
       |______________________________________|
 
        This code comes without any warranty
        for non-commercial, academia use only.
        Cite GFN-xTB work as:
        S. Grimme, C. Bannwarth, P. Shushkov
        JCTC, 13 (2017) 1989-2009
        for GFN2:
        C. Bannwarth, S. Ehlert, S. Grimme
        to be published.
        sTDA-xTB:
        S. Grimme  &  C. Bannwarth, JCP 145 (2016) 054103
        in the mass-spec context additionally:
        V. Asgeirsson, C.Bauer, S. Grimme, Chem. Sci. 8 (2017) 4879
 
        with help from
        P. Shushkov, G. Brandenburg, S. Dohm, J. Pisarek,
        F. März, M. Checinski, S. Ehrlich, S. Spicher, 
        P. Pracht, E. Caldeweyher, S. Ehlert, and C. Bannwarth.
 
        usage        :
        xtb <coord_file> [options]
        where <coord_file> is a valid file of TM)
        (*coord, Bohr) or xmol (*xyz, Angstroem)
        format.

        options:
        -chrg <int>   : molecular charge
        -uhf  <int>   : # of unpaired electrons(=2*S)
        -nox          : skip second, extended part in sTDA-xTB
        -pop          : do population analysis
                      : (default for -nox)
        -mowr <real>  : cut MO write above (def.3 Eh)
        -molden       : write formatted molden file
        -parx <file>  : read parameters for sTDA-xTB
                        calc (def:~/.param_stda2.xtb)
        -parv <file>  : read parameters for vTB part in
                        sTDA-xTB (def: ~/.param_stda1.xtb)
        -xtemp <real> : el. temp for xTB (def. 0 K)
        -etemp <real> : el. temp for GFN (def. 300 K)
        -fod          : do a xTB calc. of the FOD
                        and write molden.input file 
                        with appropriate occupations
                        for plotting. Def. T=12500 K
 
        -gfn          : use GFN-xTB
        -grad         : GFN-xTB gradient
        -acc <real>   : GFN-xTB accuracy (def. 1.0)
        -opt [level]  : optimize at GFN-xTB
                      : level=crude,vloose,loose,
                      :       tight,vtight
        -hess         : compute Hessian at GFN-xTB
        -ohess        : optimize and compute Hessian
        -omd          : optimize and do MD
        -siman        : conformational search
        -screen       : opt. loop over ensemble
        -gmd          : annealed MD for GMD procedure
        -modef        : vib mode following
        -gbsa [string1] [string2]
                        use GBSA implicit solvent
                        for solvent [string1] and
                        solvation state [string2]=
                        reference, bar1M (default=1M)
        additional GFN/opt/MD/siman options read from
        $XTBHOME/.xtbrc or $set in coordinate file
 
       spin and charge state information can be on:
       <.CHRG> (charge) and <.UHF> (=nalpha-nbeta)
       -uhf and -chrg override the file info.
       useful machine settings:
       setenv MKL_NUM_THREADS <NCORE_ON_YOUR_MACHINE>
       setenv OMP_STACKSIZE 500m
       limit stacksize unlimited
 
       total energies in Eh, gaps/HL energies in eV
       please read REVISION and HOWTO files carefully
 =============================
  # OMP threads =                     1
 =============================
 
 xtbhome directory:/Applications/xtb/
 
 argument                      1 :-gmd
 
 number of atoms            :    73
 number of electrons        :   256
 charge                     :  0
 spin                       : 0.0
 first test random number   :  0.6113
 
 
KAB for pair M(3d)-M(3d) :  1.1000
KAB for pair M(4d)-M(4d) :  1.2000
KAB for pair M(5d)-M(5d) :  1.2000
 -----------------------------------------
  G F N (Geometry, Frequency, Non-covalent)
        parametrization, version                     2
 /Applications/xtb/.param_gfn2.xtb
 -----------------------------------------
      method parameters     
 k(s)        :  1.8500
 k(p)        :  2.2500
 k(d)        :  2.0000
 k(f)        :  0.0000
 alphaj      :  1.0000
 kEN (H0ij)  : -2.3620
 D3 a1       :  0.6900
 D3 a2       :  4.0530
 D3 s8       :  2.0000
 D3atm       :  1.0000
 AESdamp     :  5.5000
 AESrad      :  1.9230
 expscalexp  : -0.2500
 
     -------------------------
     ! NO SOLVENT MODEL USED !
     -------------------------
 
 doing EN charges ...
 sum q :  0.2886580D-14
 point charge moment (au)
     X       Y       Z   
  -0.0000  -0.0000   0.0000  total (Debye):    0.000
 
            Z      q(EN)   CN      Cart. coordinates
     1  C   4.0    0.22    4.34    -5.98236    -3.03843    -0.00000
     2  C   4.0    0.22    4.34     3.03843    -5.98236     0.00000
     3  C   4.0    0.22    4.34     5.98236     3.03843     0.00000
     4  C   4.0    0.22    4.34    -3.03843     5.98236     0.00000
     5  C   4.0    0.22    4.34    -6.70676    -0.19774     0.00000
     6  C   4.0    0.22    4.34     0.19774    -6.70676     0.00000
     7  C   4.0    0.22    4.34     6.70676     0.19774     0.00000
     8  C   4.0    0.22    4.34    -0.19774     6.70676     0.00000
     9  N   5.0   -0.21    3.26    -5.60552     0.72736    -2.30178
    10  N   5.0   -0.21    3.26    -0.72736    -5.60552    -2.30178
    11  N   5.0   -0.21    3.26     5.60552    -0.72736    -2.30178
    12  N   5.0   -0.21    3.26     0.72736     5.60552     2.30178
    13  N   5.0   -0.21    3.26    -5.60552     0.72736     2.30178
    14  N   5.0   -0.21    3.26    -0.72736    -5.60552     2.30178
    15  N   5.0   -0.21    3.26     5.60552    -0.72736     2.30178
    16  N   5.0   -0.21    3.26     0.72736     5.60552    -2.30178
    17  N   5.0   -0.21    3.26    -4.57264    -3.32319    -2.30181
    18  N   5.0   -0.21    3.26     3.32319    -4.57264    -2.30181
    19  N   5.0   -0.21    3.26     4.57264     3.32319    -2.30181
    20  N   5.0   -0.21    3.26    -3.32319     4.57264     2.30181
    21  N   5.0   -0.21    3.26    -4.57264    -3.32319     2.30181
    22  N   5.0   -0.21    3.26     3.32319    -4.57264     2.30181
    23  N   5.0   -0.21    3.26     4.57264     3.32319     2.30181
    24  N   5.0   -0.21    3.26    -3.32319     4.57264    -2.30181
    25  C   4.0    0.47    3.29    -4.59974    -1.17312    -3.77042
    26  C   4.0    0.47    3.29     1.17312    -4.59974    -3.77042
    27  C   4.0    0.47    3.29     4.59974     1.17312    -3.77042
    28  C   4.0    0.47    3.29    -1.17312     4.59974     3.77042
    29  C   4.0    0.47    3.29    -4.59974    -1.17312     3.77042
    30  C   4.0    0.47    3.29     1.17312    -4.59974     3.77042
    31  C   4.0    0.47    3.29     4.59974     1.17312     3.77042
    32  C   4.0    0.47    3.29    -1.17312     4.59974    -3.77042
    33  O   6.0   -0.36    1.07    -3.95809    -1.00948    -5.93119
    34  O   6.0   -0.36    1.07     1.00948    -3.95809    -5.93119
    35  O   6.0   -0.36    1.07     3.95809     1.00948    -5.93119
    36  O   6.0   -0.36    1.07    -1.00948     3.95809     5.93119
    37  O   6.0   -0.36    1.07    -3.95809    -1.00948     5.93119
    38  O   6.0   -0.36    1.07     1.00948    -3.95809     5.93119
    39  O   6.0   -0.36    1.07     3.95809     1.00948     5.93119
    40  O   6.0   -0.36    1.07    -1.00948     3.95809    -5.93119
    41  C   4.0    0.25    4.15    -5.57396     3.30858    -3.13656
    42  C   4.0    0.25    4.15    -3.30858    -5.57396    -3.13656
    43  C   4.0    0.25    4.15     5.57396    -3.30858    -3.13656
    44  C   4.0    0.25    4.15     3.30858     5.57396     3.13656
    45  C   4.0    0.25    4.15    -5.57396     3.30858     3.13656
    46  C   4.0    0.25    4.15    -3.30858    -5.57396     3.13656
    47  C   4.0    0.25    4.15     5.57396    -3.30858     3.13656
    48  C   4.0    0.25    4.15     3.30858     5.57396    -3.13656
    49  H   1.0   -0.05    1.00    -7.26594     4.31285    -2.48837
    50  H   1.0   -0.05    1.00    -4.31285    -7.26594    -2.48837
    51  H   1.0   -0.05    1.00     7.26594    -4.31285    -2.48837
    52  H   1.0   -0.05    1.00     4.31285     7.26594     2.48837
    53  H   1.0   -0.05    1.00    -7.26594     4.31285     2.48837
    54  H   1.0   -0.05    1.00    -4.31285    -7.26594     2.48837
    55  H   1.0   -0.05    1.00     7.26594    -4.31285     2.48837
    56  H   1.0   -0.05    1.00     4.31285     7.26594    -2.48837
    57  H   1.0   -0.05    1.01    -5.46997     3.24685    -5.20978
    58  H   1.0   -0.05    1.01    -3.24685    -5.46997    -5.20978
    59  H   1.0   -0.05    1.01     5.46997    -3.24685    -5.20978
    60  H   1.0   -0.05    1.01     3.24685     5.46997     5.20978
    61  H   1.0   -0.05    1.01    -5.46997     3.24685     5.20978
    62  H   1.0   -0.05    1.01    -3.24685    -5.46997     5.20978
    63  H   1.0   -0.05    1.01     5.46997    -3.24685     5.20978
    64  H   1.0   -0.05    1.01     3.24685     5.46997    -5.20978
    65  H   1.0   -0.05    1.00    -8.77398     0.13029     0.00000
    66  H   1.0   -0.05    1.00    -0.13029    -8.77398    -0.00000
    67  H   1.0   -0.05    1.00     8.77398    -0.13029    -0.00000
    68  H   1.0   -0.05    1.00     0.13029     8.77398     0.00000
    69  H   1.0   -0.05    1.00    -7.64005    -4.31634     0.00000
    70  H   1.0   -0.05    1.00     4.31634    -7.64005    -0.00000
    71  H   1.0   -0.05    1.00     7.64005     4.31634    -0.00000
    72  H   1.0   -0.05    1.00    -4.31634     7.64005     0.00000
    73  NE  8.0   -0.07    0.04     0.00000    -0.00000    -0.00000
 
  Z AO/shell   Hii/eV     exponent
  1     Sat Jan 20 17:55:17 CET 2018    EN: 2.200 GAM: 0.531  GM3:-0.4370
     1s    -10.248275    1.266496
  6     Sat Jan 20 17:55:17 CET 2018    EN: 2.550 GAM: 0.417  GM3:-0.0654
     2s    -15.292509    2.030071
     2p    -10.408465    1.801676
  7     Sat Jan 20 17:55:17 CET 2018    EN: 3.040 GAM: 0.444  GM3:-0.1301
     2s    -16.687725    2.226550
     2p    -13.175143    1.981921
  8     Sat Jan 20 17:55:17 CET 2018    EN: 3.440 GAM: 0.468  GM3: 0.0937
     2s    -20.924998    2.442614
     2p    -15.243501    2.233841
 10     Sun Jan 21 09:56:42 CET 2018    EN: 4.500 GAM: 1.109  GM3: 0.2000
     2s    -25.000000    2.800000
     2p    -16.000000    2.600000
     3d     -4.162395    2.600000
 no old-style atom pair restraing (fixing) potential
 
 molecular fragmentation (1/2 indicates fragments):
1111111111111111111111111111111111111111111111111111111111111111111111112
# atoms in fragment 1/2:    72     1
 fragment masses (1/2) :      664.56       20.18
CMA distance (Bohr)    :   0.000
constraining FC (au)   :  0.0500
 
             =======================================
             |                                     |
             |        S C C  calculation           |
             |                                     |
             =======================================
 #proc     :                      1
 Ncao      :                    226
 Nao       :                    225
 Nel       :                    256
 T(el)     :   300.0
 intcut    :    25.0
 scfconv   :  0.100E-05
   qconv   :  0.200E-04
 intneglect:  0.100E-07
 broydamp  :      0.400
 Nshell    :                    123
 iter      E             dE          RMSdq      gap      omega  full diag
   1   -153.3174506 -0.153317E+03  0.989E+00    4.82       0.0  T
   2   -153.8122169 -0.494766E+00  0.540E+00    5.36       1.0  T
   3   -153.7713661  0.408508E-01  0.221E+00    4.78       1.0  T
   4   -153.9132629 -0.141897E+00  0.581E-01    5.28       1.0  T
   5   -153.9204219 -0.715905E-02  0.209E-01    5.23       1.0  T
   6   -153.9208511 -0.429163E-03  0.744E-02    5.25       1.0  T
   7   -153.9209176 -0.664713E-04  0.268E-02    5.25       1.0  T
   8   -153.9209292 -0.116441E-04  0.945E-03    5.25       1.2  T
   9   -153.9209315 -0.224292E-05  0.552E-03    5.25       2.1  T
  10   -153.9209322 -0.713158E-06  0.208E-03    5.25       5.6  T
  11   -153.9209323 -0.118944E-06  0.739E-04    5.25      15.8  T
  12   -153.9209323 -0.209983E-07  0.343E-04    5.25      34.1  T
  13   -153.9209323 -0.582688E-08  0.116E-04    5.25     100.7  T
  14   -153.9209323 -0.104515E-08  0.411E-05    5.25     284.8  T
speedup  7.86
cpu  time for SCC    3.83 s
wall time for SCC    0.49 s

          eigenvalues
 #    :         116        117        118        119        120        121        122        123
 occ. :        2.000      2.000      2.000      2.000      2.000      2.000      2.000      2.000
 eps  :       -10.353    -10.353    -10.348    -10.292    -10.256    -10.185    -10.115    -10.090
 #    :         124        125        126        127        128        129        130        131
 occ. :        2.000      2.000      2.000      2.000      2.000      0.000      0.000      0.000
 eps  :       -10.090    -10.074    -10.074    -10.011     -9.904     -4.655     -4.601     -4.443
 #    :         132        133        134        135        136        137        138        139
 occ. :        0.000      0.000      0.000      0.000      0.000      0.000      0.000      0.000
 eps  :        -4.443     -4.396     -4.396     -4.326     -4.229     -4.208     -4.143     -4.141
 
 
 Mulliken/CM5 charges        n(s)   n(p)   n(d)
     1 C   0.06806  0.14962   1.077  2.855  0.000
     2 C   0.06806  0.14962   1.077  2.855  0.000
     3 C   0.06806  0.14962   1.077  2.855  0.000
     4 C   0.06806  0.14962   1.077  2.855  0.000
     5 C   0.06806  0.14962   1.077  2.855  0.000
     6 C   0.06806  0.14962   1.077  2.855  0.000
     7 C   0.06806  0.14962   1.077  2.855  0.000
     8 C   0.06806  0.14962   1.077  2.855  0.000
     9 N  -0.03407 -0.27446   1.124  3.910  0.000
    10 N  -0.03407 -0.27446   1.124  3.910  0.000
    11 N  -0.03407 -0.27446   1.124  3.910  0.000
    12 N  -0.03407 -0.27446   1.124  3.910  0.000
    13 N  -0.03407 -0.27446   1.124  3.910  0.000
    14 N  -0.03407 -0.27446   1.124  3.910  0.000
    15 N  -0.03407 -0.27446   1.124  3.910  0.000
    16 N  -0.03407 -0.27446   1.124  3.910  0.000
    17 N  -0.03407 -0.27446   1.124  3.910  0.000
    18 N  -0.03407 -0.27446   1.124  3.910  0.000
    19 N  -0.03407 -0.27446   1.124  3.910  0.000
    20 N  -0.03407 -0.27446   1.124  3.910  0.000
    21 N  -0.03407 -0.27446   1.124  3.910  0.000
    22 N  -0.03407 -0.27446   1.124  3.910  0.000
    23 N  -0.03407 -0.27446   1.124  3.910  0.000
    24 N  -0.03407 -0.27446   1.124  3.910  0.000
    25 C   0.23367  0.40708   1.052  2.715  0.000
    26 C   0.23367  0.40708   1.052  2.715  0.000
    27 C   0.23367  0.40708   1.052  2.715  0.000
    28 C   0.23367  0.40708   1.052  2.715  0.000
    29 C   0.23367  0.40708   1.052  2.715  0.000
    30 C   0.23367  0.40708   1.052  2.715  0.000
    31 C   0.23367  0.40708   1.052  2.715  0.000
    32 C   0.23367  0.40708   1.052  2.715  0.000
    33 O  -0.39968 -0.44178   1.725  4.674  0.000
    34 O  -0.39968 -0.44178   1.725  4.674  0.000
    35 O  -0.39968 -0.44178   1.725  4.674  0.000
    36 O  -0.39968 -0.44178   1.725  4.674  0.000
    37 O  -0.39968 -0.44178   1.725  4.674  0.000
    38 O  -0.39968 -0.44178   1.725  4.674  0.000
    39 O  -0.39968 -0.44178   1.725  4.674  0.000
    40 O  -0.39968 -0.44178   1.725  4.674  0.000
    41 C   0.03209  0.05863   1.071  2.896  0.000
    42 C   0.03209  0.05863   1.071  2.896  0.000
    43 C   0.03209  0.05863   1.071  2.896  0.000
    44 C   0.03209  0.05863   1.071  2.896  0.000
    45 C   0.03209  0.05863   1.071  2.896  0.000
    46 C   0.03209  0.05863   1.071  2.896  0.000
    47 C   0.03209  0.05863   1.071  2.896  0.000
    48 C   0.03209  0.05863   1.071  2.896  0.000
    49 H   0.03512  0.11147   0.965  0.000  0.000
    50 H   0.03512  0.11147   0.965  0.000  0.000
    51 H   0.03512  0.11147   0.965  0.000  0.000
    52 H   0.03512  0.11147   0.965  0.000  0.000
    53 H   0.03512  0.11147   0.965  0.000  0.000
    54 H   0.03512  0.11147   0.965  0.000  0.000
    55 H   0.03512  0.11147   0.965  0.000  0.000
    56 H   0.03512  0.11147   0.965  0.000  0.000
    57 H   0.07358  0.16205   0.926  0.000  0.000
    58 H   0.07358  0.16205   0.926  0.000  0.000
    59 H   0.07358  0.16205   0.926  0.000  0.000
    60 H   0.07358  0.16205   0.926  0.000  0.000
    61 H   0.07358  0.16205   0.926  0.000  0.000
    62 H   0.07358  0.16205   0.926  0.000  0.000
    63 H   0.07358  0.16205   0.926  0.000  0.000
    64 H   0.07358  0.16205   0.926  0.000  0.000
    65 H   0.02520  0.10299   0.975  0.000  0.000
    66 H   0.02520  0.10299   0.975  0.000  0.000
    67 H   0.02520  0.10299   0.975  0.000  0.000
    68 H   0.02520  0.10299   0.975  0.000  0.000
    69 H   0.02521  0.10300   0.975  0.000  0.000
    70 H   0.02521  0.10300   0.975  0.000  0.000
    71 H   0.02521  0.10300   0.975  0.000  0.000
    72 H   0.02521  0.10300   0.975  0.000  0.000
    73 NE  0.00087 -0.00917   2.000  6.000 -0.000
 
 Wiberg/Mayer (AO) data. WBOs > 0.1 written file <wbo>
 largest (>0.05) Wiberg bond orders for each atom
           total WBO             WBO to atom ...
     1  C   3.978    N   17 0.995    N   21 0.995    C    5 0.957    H   69 0.948
     2  C   3.978    N   22 0.995    N   18 0.995    C    6 0.957    H   70 0.948
     3  C   3.978    N   19 0.995    N   23 0.995    C    7 0.957    H   71 0.948
     4  C   3.978    N   24 0.995    N   20 0.995    C    8 0.957    H   72 0.948
     5  C   3.978    N    9 0.995    N   13 0.995    C    1 0.957    H   65 0.948
     6  C   3.978    N   14 0.995    N   10 0.995    C    2 0.957    H   66 0.948
     7  C   3.978    N   15 0.995    N   11 0.995    C    3 0.957    H   67 0.948
     8  C   3.978    N   12 0.995    N   16 0.995    C    4 0.957    H   68 0.948
     9  N   3.418    C   25 1.100    C   41 0.997    C    5 0.995    O   33 0.150
    10  N   3.418    C   26 1.100    C   42 0.997    C    6 0.995    O   34 0.150
    11  N   3.418    C   27 1.100    C   43 0.997    C    7 0.995    O   35 0.150
    12  N   3.418    C   28 1.100    C   44 0.997    C    8 0.995    O   36 0.150
    13  N   3.418    C   29 1.100    C   45 0.997    C    5 0.995    O   37 0.150
    14  N   3.418    C   30 1.100    C   46 0.997    C    6 0.995    O   38 0.150
    15  N   3.418    C   31 1.100    C   47 0.997    C    7 0.995    O   39 0.150
    16  N   3.418    C   32 1.100    C   48 0.997    C    8 0.995    O   40 0.150
    17  N   3.418    C   25 1.100    C   42 0.997    C    1 0.995    O   33 0.150
    18  N   3.418    C   26 1.100    C   43 0.997    C    2 0.995    O   34 0.150
    19  N   3.418    C   27 1.100    C   48 0.997    C    3 0.995    O   35 0.150
    20  N   3.418    C   28 1.100    C   45 0.997    C    4 0.995    O   36 0.150
    21  N   3.418    C   29 1.100    C   46 0.997    C    1 0.995    O   37 0.150
    22  N   3.418    C   30 1.100    C   47 0.997    C    2 0.995    O   38 0.150
    23  N   3.418    C   31 1.100    C   44 0.997    C    3 0.995    O   39 0.150
    24  N   3.418    C   32 1.100    C   41 0.997    C    4 0.995    O   40 0.150
    25  C   3.966    O   33 1.701    N    9 1.100    N   17 1.100
    26  C   3.966    O   34 1.701    N   10 1.100    N   18 1.100
    27  C   3.966    O   35 1.701    N   11 1.100    N   19 1.100
    28  C   3.966    O   36 1.701    N   12 1.100    N   20 1.100
    29  C   3.966    O   37 1.701    N   13 1.100    N   21 1.100
    30  C   3.966    O   38 1.701    N   14 1.100    N   22 1.100
    31  C   3.966    O   39 1.701    N   15 1.100    N   23 1.100
    32  C   3.966    O   40 1.701    N   16 1.100    N   24 1.100
    33  O   2.061    C   25 1.701    N    9 0.150    N   17 0.150
    34  O   2.061    C   26 1.701    N   10 0.150    N   18 0.150
    35  O   2.061    C   27 1.701    N   11 0.150    N   19 0.150
    36  O   2.061    C   28 1.701    N   12 0.150    N   20 0.150
    37  O   2.061    C   29 1.701    N   13 0.150    N   21 0.150
    38  O   2.061    C   30 1.701    N   14 0.150    N   22 0.150
    39  O   2.061    C   31 1.701    N   15 0.150    N   23 0.150
    40  O   2.061    C   32 1.701    N   16 0.150    N   24 0.150
    41  C   3.970    N    9 0.997    N   24 0.997    H   49 0.965    H   57 0.957
    42  C   3.970    N   10 0.997    N   17 0.997    H   50 0.965    H   58 0.957
    43  C   3.970    N   11 0.997    N   18 0.997    H   51 0.965    H   59 0.957
    44  C   3.970    N   12 0.997    N   23 0.997    H   52 0.965    H   60 0.957
    45  C   3.970    N   13 0.997    N   20 0.997    H   53 0.965    H   61 0.957
    46  C   3.970    N   14 0.997    N   21 0.997    H   54 0.965    H   62 0.957
    47  C   3.970    N   15 0.997    N   22 0.997    H   55 0.965    H   63 0.957
    48  C   3.970    N   16 0.997    N   19 0.997    H   56 0.965    H   64 0.957
    49  H   0.998    C   41 0.965
    50  H   0.998    C   42 0.965
    51  H   0.998    C   43 0.965
    52  H   0.998    C   44 0.965
    53  H   0.998    C   45 0.965
    54  H   0.998    C   46 0.965
    55  H   0.998    C   47 0.965
    56  H   0.998    C   48 0.965
    57  H   0.994    C   41 0.957
    58  H   0.994    C   42 0.957
    59  H   0.994    C   43 0.957
    60  H   0.994    C   44 0.957
    61  H   0.994    C   45 0.957
    62  H   0.994    C   46 0.957
    63  H   0.994    C   47 0.957
    64  H   0.994    C   48 0.957
    65  H   0.999    C    5 0.948
    66  H   0.999    C    6 0.948
    67  H   0.999    C    7 0.948
    68  H   0.999    C    8 0.948
    69  H   0.999    C    1 0.948
    70  H   0.999    C    2 0.948
    71  H   0.999    C    3 0.948
    72  H   0.999    C    4 0.948
    73  NE  0.000
 density
 
 cube file module (SG, 7/16)
 cube_pthr     :   0.005
 cube_step     :   0.400
 non-zero P (%):  29.410   nmat:    7544
 Grid Boundaries (x y z) :
   11.7739784139679        11.7739784147966        8.93118603621698     
  -11.7739784138647       -11.7739784152109       -8.93118603598069     
 Total # of points                156645
 writing density.cub
 N    (numint) : ******
cpu  time for cube   41.01 s
wall time for cube   39.65 s
 
molecular dipole:
                 x           y           z       tot (Debye)
 q only:        0.000       0.000      -0.000
   full:        0.000      -0.000      -0.000       0.000
molecular quadrupole (traceless):
                xx          xy          yy          xz          yz          zz
 q only:       50.791      -0.000      50.791      -0.000       0.000    -101.582
  q+dip:       62.730      -0.000      62.730      -0.000       0.000    -125.461
   full:       63.631      -0.000      63.631      -0.000       0.000    -127.261
 SCC converged in                     14  cycles
 
SCC energy    :    -153.9209323
rep           :       1.5069641
ES            :      -0.0046966
AES           :       0.0140981
disp          :      -0.1082359
XB            :       0.0000000
fix           :       0.0000000
total E       :    -152.5222042
atomizationE  :      19.6877309    12354.24
(atE without considerung molecular charge,
 total energy contains solvation terms)
H-L gap (eV)  :          5.2494
 
       ===================================
       |          GMD driver             |
       ===================================
 
 
 MD time /ps        :   50.00
 dt /fs             :    4.00
 SCC accuracy       :    1.00
 temperature /K     :  298.15
 max steps          : 12500
 block length (av.) :   875
 dumpstep(trj) /fs  :   50.00    12
 dumpstep(coords)/fs: 1000.00   250
 minimum runtime(ps):   5.0
 maximum runtime(ps):  50.0
 H atoms mass (amu) :     4
 # deg. of freedom  :   135
 SHAKE on. # bonds  :                    84  all: T
 Berendsen THERMOSTAT on
 EQUILIBRATION mode
         time (ps)    <Epot>      Ekin   <T>   T     Etot
  q data taken from xtbrestart
  CAMM data taken from xtbrestart
      0    0.00      0.00000   0.0380    0.    0.  -152.48423
est. speed in wall clock h for 100 ps :  3.68
    200    0.80   -151.74728   0.0194   83.   91.  -152.48388
    400    1.60   -152.12478   0.0236   86.  110.  -152.48273
    600    2.40   -152.25090   0.0208   87.   97.  -152.48360
    800    3.20   -152.31413   0.0200   88.   93.  -152.48408
block <Epot> / <T> :    -152.50447   88.     drift:  0.99D+02   Tbath : 134.
   1000    4.00   -152.35123   0.0240   92.  112.  -152.47070
   1200    4.80   -152.37507   0.0280   99.  131.  -152.46732
   1400    5.60   -152.39206   0.0278  104.  130.  -152.46473
   1600    6.40   -152.40484   0.0301  107.  141.  -152.46620
block <Epot> / <T> :    -152.49471  132.     drift:  0.99D+02   Tbath : 201.
   1800    7.20   -152.41465   0.0354  111.  166.  -152.44919
   2000    8.00   -152.42125   0.0446  119.  208.  -152.43614
   2200    8.80   -152.42651   0.0431  127.  202.  -152.44133
   2400    9.60   -152.43090   0.0418  133.  196.  -152.43585
   2600   10.40   -152.43462   0.0434  138.  203.  -152.43554
block <Epot> / <T> :    -152.48014  197.     drift:  0.99D+02   Tbath : 298.
   2800   11.20   -152.43695   0.0576  147.  270.  -152.40378
   3000   12.00   -152.43847   0.0632  157.  296.  -152.38985
   3200   12.80   -152.43984   0.0597  166.  279.  -152.40112
   3400   13.60   -152.44104   0.0722  174.  338.  -152.39540
block <Epot> / <T> :    -152.46114  293.     drift:  0.14D-01   Tbath : 298.
   3600   14.40   -152.44210   0.0604  181.  283.  -152.39771
   3800   15.20   -152.44304   0.0624  187.  292.  -152.39411
   4000   16.00   -152.44386   0.0781  192.  365.  -152.39078
   4200   16.80   -152.44465   0.0718  197.  336.  -152.39993
block <Epot> / <T> :    -152.45996  298.     drift:  0.12D-01   Tbath : 298.
   4400   17.60   -152.44534   0.0669  202.  313.  -152.39908
   4600   18.40   -152.44594   0.0781  206.  365.  -152.39426
   4800   19.20   -152.44647   0.0650  210.  304.  -152.38886
   5000   20.00   -152.44696   0.0646  214.  302.  -152.39629
   5200   20.80   -152.44742   0.0549  217.  257.  -152.39925
block <Epot> / <T> :    -152.45886  298.     drift:  0.65D-02   Tbath : 298.
   5400   21.60   -152.44784   0.0548  220.  256.  -152.39549
   5600   22.40   -152.44827   0.0611  223.  286.  -152.39318
   5800   23.20   -152.44865   0.0653  225.  305.  -152.39198
   6000   24.00   -152.44901   0.0603  228.  282.  -152.40085
block <Epot> / <T> :    -152.45943  298.     drift:  0.62D-03   Tbath : 298.
 GOOD AVERAGES REACHED
 average properties 
 Epot               :  -152.474101200013     
 Epot (accurate SCC):  -152.473939628193     
 Ekin               :  4.899022906047246E-002
 Etot               :  -152.425110970952     
 T                  :   229.183296639042     
 normal exit of md()
 
 MD time /ps        :   50.00
 dt /fs             :    4.00
 SCC accuracy       :    1.00
 temperature /K     :  298.15
 max steps          : 50000
 block length (av.) :   875
 dumpstep(trj) /fs  :   50.00    12
 dumpstep(coords)/fs: 1000.00   250
 minimum runtime(ps):  50.0
 maximum runtime(ps): 200.0
 H atoms mass (amu) :     4
 # deg. of freedom  :   135
 SHAKE on. # bonds  :                    84  all: T
 Berendsen THERMOSTAT on
 GMD mode
 RESTART
         time (ps)    <Epot>      Ekin   <T>   T     Etot
  q data taken from xtbrestart
  CAMM data taken from xtbrestart
 reading input structure for Re-R0 averaging
      0    0.00      0.00000   0.0514    0.    0.  -152.39579
est. speed in wall clock h for 100 ps :  3.80
    200    0.80   -151.70133   0.0640  300.  299.  -152.39013
    400    1.60   -152.07981   0.0624  300.  292.  -152.40026
    600    2.40   -152.20676   0.0625  300.  292.  -152.39897
    800    3.20   -152.27014   0.0588  299.  275.  -152.40524
block <Epot> / <T> :    -152.46051  299.     drift:  0.99D+02   Tbath : 298.
   1000    4.00   -152.30825   0.0612  299.  286.  -152.39963
   1200    4.80   -152.33361   0.0705  299.  330.  -152.40012
   1400    5.60   -152.35175   0.0636  299.  297.  -152.39070
   1600    6.40   -152.36526   0.0633  298.  296.  -152.40247
block <Epot> / <T> :    -152.46020  297.     drift:  0.99D+02   Tbath : 298.
   1800    7.20   -152.37565   0.0618  298.  289.  -152.39743
   2000    8.00   -152.38393   0.0694  298.  325.  -152.39668
   2200    8.80   -152.39069   0.0533  298.  249.  -152.39309
   2400    9.60   -152.39631   0.0681  298.  319.  -152.39746
   2600   10.40   -152.40108   0.0573  298.  268.  -152.39461
block <Epot> / <T> :    -152.45836  298.     drift:  0.99D+02   Tbath : 298.
   2800   11.20   -152.40520   0.0617  298.  289.  -152.39729
   3000   12.00   -152.40879   0.0694  298.  325.  -152.39521
   3200   12.80   -152.41192   0.0566  298.  265.  -152.39990
   3400   13.60   -152.41469   0.0602  298.  282.  -152.39439
block <Epot> / <T> :    -152.45888  298.     drift:  0.67D-03   Tbath : 298.
   3600   14.40   -152.41713   0.0603  298.  282.  -152.38616
   3800   15.20   -152.41930   0.0642  298.  300.  -152.39356
   4000   16.00   -152.42124   0.0672  298.  314.  -152.39890
   4200   16.80   -152.42301   0.0625  298.  292.  -152.40121
block <Epot> / <T> :    -152.45837  298.     drift:  0.50D-03   Tbath : 298.
   4400   17.60   -152.42464   0.0762  298.  356.  -152.38666
   4600   18.40   -152.42611   0.0605  298.  283.  -152.39661
   4800   19.20   -152.42747   0.0640  298.  299.  -152.39066
   5000   20.00   -152.42871   0.0638  298.  298.  -152.39712
   5200   20.80   -152.42987   0.0600  298.  281.  -152.39977
block <Epot> / <T> :    -152.45872  298.     drift: -0.57D-04   Tbath : 298.
   5400   21.60   -152.43094   0.0609  298.  285.  -152.39045
   5600   22.40   -152.43193   0.0709  298.  332.  -152.39812
   5800   23.20   -152.43285   0.0634  298.  297.  -152.38837
   6000   24.00   -152.43371   0.0523  298.  245.  -152.39997
block <Epot> / <T> :    -152.45875  298.     drift:  0.32D-05   Tbath : 298.
   6200   24.80   -152.43453   0.0633  298.  296.  -152.39380
   6400   25.60   -152.43532   0.0628  298.  294.  -152.39696
   6600   26.40   -152.43604   0.0593  298.  278.  -152.39532
   6800   27.20   -152.43673   0.0625  298.  292.  -152.39226
   7000   28.00   -152.43738   0.0657  298.  307.  -152.39991
block <Epot> / <T> :    -152.45945  298.     drift: -0.33D-03   Tbath : 298.
   7200   28.80   -152.43796   0.0544  298.  255.  -152.40500
   7400   29.60   -152.43853   0.0628  298.  294.  -152.39357
   7600   30.40   -152.43907   0.0663  298.  310.  -152.38872
   7800   31.20   -152.43958   0.0652  298.  305.  -152.39418
block <Epot> / <T> :    -152.45882  298.     drift: -0.98D-04   Tbath : 298.
   8000   32.00   -152.44006   0.0781  298.  365.  -152.39431
   8200   32.80   -152.44052   0.0587  298.  275.  -152.39627
   8400   33.60   -152.44097   0.0654  298.  306.  -152.39867
   8600   34.40   -152.44140   0.0687  298.  321.  -152.39891
block <Epot> / <T> :    -152.45916  298.     drift: -0.61D-04   Tbath : 298.
   8800   35.20   -152.44180   0.0675  298.  316.  -152.39787
   9000   36.00   -152.44219   0.0740  298.  346.  -152.38878
   9200   36.80   -152.44255   0.0607  298.  284.  -152.39922
   9400   37.60   -152.44293   0.0665  298.  311.  -152.39506
   9600   38.40   -152.44330   0.0593  298.  278.  -152.40291
block <Epot> / <T> :    -152.45981  299.     drift: -0.14D-03   Tbath : 298.
   9800   39.20   -152.44363   0.0632  298.  295.  -152.39105
  10000   40.00   -152.44395   0.0607  298.  284.  -152.39620
  10200   40.80   -152.44427   0.0694  298.  325.  -152.39807
  10400   41.60   -152.44459   0.0698  298.  327.  -152.38961
block <Epot> / <T> :    -152.46010  298.     drift: -0.45D-03   Tbath : 298.
  10600   42.40   -152.44488   0.0555  298.  260.  -152.39710
  10800   43.20   -152.44515   0.0632  298.  295.  -152.39586
  11000   44.00   -152.44541   0.0667  298.  312.  -152.39806
  11200   44.80   -152.44566   0.0635  298.  297.  -152.39699
block <Epot> / <T> :    -152.45936  297.     drift: -0.88D-04   Tbath : 298.
  11400   45.60   -152.44590   0.0663  298.  310.  -152.39147
  11600   46.40   -152.44613   0.0681  298.  319.  -152.38974
  11800   47.20   -152.44635   0.0652  298.  305.  -152.39391
  12000   48.00   -152.44658   0.0682  298.  319.  -152.39927
  12200   48.80   -152.44679   0.0690  298.  323.  -152.39274
block <Epot> / <T> :    -152.45952  298.     drift:  0.16D-03   Tbath : 298.
  12400   49.60   -152.44699   0.0650  298.  304.  -152.39613
 GOOD AVERAGES REACHED
 average properties 
 Epot               :  -152.459277460991     
 Epot (accurate SCC):  -152.459250377179     
 Ekin               :  6.371796545166326E-002
 Etot               :  -152.395559495540     
 T                  :   298.081753390437     
 corrections to Re Z-matrix:
   1  C     0.000000      0.0000      0.0000     0    0    0
   2  C    -0.026506      0.0000      0.0000     1    0    0
   3  C    -0.024101      0.0091      0.0000     2    1    0
   4  C    -0.023818     -0.0313     -0.1072     1    2    3
   5  C     0.000000     -0.1406     -0.1012     1    2    3
   6  C     0.000000      0.0390      0.0003     2    1    3
   7  C     0.000000     -0.0694      0.1258     3    2    1
   8  C     0.000000     -0.0338      0.1050     4    1    2
   9  N     0.000000     -0.0844     -0.3761     5    1    2
  10  N     0.000000     -0.0803      0.4354     6    2    1
  11  N     0.000000     -0.0818     -0.6349     7    3    2
  12  N     0.000000     -0.0682      0.4771     8    4    1
  13  N     0.000000     -0.0899     -0.4124     5    1    2
  14  N     0.000000     -0.0662      0.3841     6    2    1
  15  N     0.000000     -0.0886     -0.6219     7    3    2
  16  N     0.000000     -0.0628      0.5105     8    4    1
  17  N     0.000000     -0.2532     -0.4352     1    2    3
  18  N     0.000000      0.3495     -0.6088     2    1    3
  19  N     0.000000     -0.1388      0.6038     3    2    1
  20  N     0.000000     -0.2493      0.5363     4    1    2
  21  N     0.000000      0.4467     -0.2258     1    2    3
  22  N     0.000000     -0.2897     -0.6231     2    1    3
  23  N     0.000000      0.3352      0.5803     3    2    1
  24  N     0.000000      0.4211      0.1922     4    1    2
  25  C     0.000000     -0.6525      1.8025     9    5    1
  26  C     0.000000     -0.6396      1.8764    10    6    2
  27  C     0.000000     -0.6567      1.9215    11    7    3
  28  C     0.000000     -0.6303     -0.0482    12    8    4
  29  C     0.000000     -0.6243      0.2967    13    5    1
  30  C     0.000000     -0.6370      0.4694    14    6    2
  31  C     0.000000     -0.6164      0.3633    15    7    3
  32  C     0.000000     -0.5851      1.3703    16    8    4
  33  O     0.000000     -0.2714      0.2649    25    9    5
  34  O     0.000000     -0.2878     -0.1501    26   10    6
  35  O     0.000000     -0.2653      0.1746    27   11    7
  36  O     0.000000     -0.2769      0.0927    28   12    8
  37  O     0.000000     -0.2884     -0.3316    29   13    5
  38  O     0.000000     -0.2864     -0.3605    30   14    6
  39  O     0.000000     -0.3173     -0.3230    31   15    7
  40  O     0.000000     -0.2792      0.4048    32   16    8
  41  C     0.000000     -1.0896     -0.5491     9    5    1
  42  C     0.000000     -1.0895      0.9852    10    6    2
  43  C     0.000000     -1.0659     -1.0245    11    7    3
  44  C     0.000000     -1.0444      0.6302    12    8    4
  45  C     0.000000     -1.0228     -0.8645    13    5    1
  46  C     0.000000     -1.0716      0.4010    14    6    2
  47  C     0.000000     -1.1124     -1.2110    15    7    3
  48  C     0.000000     -1.0980      1.1243    16    8    4
  49  H     0.000000     -0.2577      0.5005    41    9    5
  50  H     0.000000     -0.2017     -1.1315    42   10    6
  51  H     0.000000     -0.2742      1.0522    43   11    7
  52  H     0.000000     -0.2500     -0.6820    44   12    8
  53  H     0.000000     -0.2454      1.1488    45   13    5
  54  H     0.000000     -0.2613     -0.4081    46   14    6
  55  H     0.000000     -0.2219      1.6592    47   15    7
  56  H     0.000000     -0.2272     -1.3104    48   16    8
  57  H     0.000000      0.2818      0.8528    41    9    5
  58  H     0.000000      0.1160     -0.6973    42   10    6
  59  H     0.000000      0.3392      1.3792    43   11    7
  60  H     0.000000      0.2759     -1.0526    44   12    8
  61  H     0.000000      0.1448      0.6984    45   13    5
  62  H     0.000000      0.3032     -0.8532    46   14    6
  63  H     0.000000      0.1121      1.1865    47   15    7
  64  H     0.000000      0.1245     -0.8892    48   16    8
  65  H     0.000000     -0.0582     -0.3812     5    1    2
  66  H     0.000000     -0.1031      0.4022     6    2    1
  67  H     0.000000     -0.0754     -0.5951     7    3    2
  68  H     0.000000     -0.0890      0.4651     8    4    1
  69  H     0.000000     -0.2330     -0.5440     1    2    3
  70  H     0.000000     -0.5256     -1.1217     2    1    3
  71  H     0.000000     -0.6487      0.9280     3    2    1
  72  H     0.000000     -0.3275      0.5209     4    1    2
  73  NE    0.029741     -0.0184      0.2845    26   10    6
Be      (a,b,c, in MHz) :     95.268     95.268     84.542
Be - B0 (a,b,c, in MHz) :     -0.601     -0.435     -0.470
 corrected structure on <xtb_mdav.coord>
 normal exit of md()
 
speedup  7.18
cpu  time for all   20 h 51 m  2.0 s
wall time for all    2 h 54 m  9.1 s
