 
        ______________________________________
       |                                      |
       |           ==================         |
       |                 x T B                |
       |           ==================         |
       |               S. Grimme              |
       |        Universitaet Bonn, MCTC       |
       |         2015-18, Version 5.0         |
       |      Sat Jan 20 11:00:33 CET 2018    |
       |______________________________________|
 
        This code comes without any warranty
        for non-commercial, academia use only.
        Cite GFN-xTB work as:
        S. Grimme, C. Bannwarth, P. Shushkov
        JCTC, 13 (2017) 1989-2009
        for GFN2:
        C. Bannwarth, S. Ehlert, S. Grimme
        to be published.
        sTDA-xTB:
        S. Grimme  &  C. Bannwarth, JCP 145 (2016) 054103
        in the mass-spec context additionally:
        V. Asgeirsson, C.Bauer, S. Grimme, Chem. Sci. 8 (2017) 4879
 
        with help from
        P. Shushkov, G. Brandenburg, S. Dohm, J. Pisarek,
        F. März, M. Checinski, S. Ehrlich, S. Spicher, 
        P. Pracht, E. Caldeweyher, S. Ehlert, and C. Bannwarth.
 
        usage        :
        xtb <coord_file> [options]
        where <coord_file> is a valid file of TM)
        (*coord, Bohr) or xmol (*xyz, Angstroem)
        format.

        options:
        -chrg <int>   : molecular charge
        -uhf  <int>   : # of unpaired electrons(=2*S)
        -nox          : skip second, extended part in sTDA-xTB
        -pop          : do population analysis
                      : (default for -nox)
        -mowr <real>  : cut MO write above (def.3 Eh)
        -molden       : write formatted molden file
        -parx <file>  : read parameters for sTDA-xTB
                        calc (def:~/.param_stda2.xtb)
        -parv <file>  : read parameters for vTB part in
                        sTDA-xTB (def: ~/.param_stda1.xtb)
        -xtemp <real> : el. temp for xTB (def. 0 K)
        -etemp <real> : el. temp for GFN (def. 300 K)
        -fod          : do a xTB calc. of the FOD
                        and write molden.input file 
                        with appropriate occupations
                        for plotting. Def. T=12500 K
 
        -gfn          : use GFN-xTB
        -grad         : GFN-xTB gradient
        -acc <real>   : GFN-xTB accuracy (def. 1.0)
        -opt [level]  : optimize at GFN-xTB
                      : level=crude,vloose,loose,
                      :       tight,vtight
        -hess         : compute Hessian at GFN-xTB
        -ohess        : optimize and compute Hessian
        -omd          : optimize and do MD
        -siman        : conformational search
        -screen       : opt. loop over ensemble
        -gmd          : annealed MD for GMD procedure
        -modef        : vib mode following
        -gbsa [string1] [string2]
                        use GBSA implicit solvent
                        for solvent [string1] and
                        solvation state [string2]=
                        reference, bar1M (default=1M)
        additional GFN/opt/MD/siman options read from
        $XTBHOME/.xtbrc or $set in coordinate file
 
       spin and charge state information can be on:
       <.CHRG> (charge) and <.UHF> (=nalpha-nbeta)
       -uhf and -chrg override the file info.
       useful machine settings:
       setenv MKL_NUM_THREADS <NCORE_ON_YOUR_MACHINE>
       setenv OMP_STACKSIZE 500m
       limit stacksize unlimited
 
       total energies in Eh, gaps/HL energies in eV
       please read REVISION and HOWTO files carefully
 =============================
  # OMP threads =                     1
 =============================
 
 xtbhome directory:/Applications/xtb/
 
 argument                      1 :-gmd
 
 number of atoms            :    72
 number of electrons        :   249
 charge                     : -1
 spin                       : 0.5
 first test random number   :  0.4908
 
 
KAB for pair M(3d)-M(3d) :  1.1000
KAB for pair M(4d)-M(4d) :  1.2000
KAB for pair M(5d)-M(5d) :  1.2000
 -----------------------------------------
  G F N (Geometry, Frequency, Non-covalent)
        parametrization, version                     2
 /Applications/xtb/.param_gfn2.xtb
 -----------------------------------------
      method parameters     
 k(s)        :  1.8500
 k(p)        :  2.2500
 k(d)        :  2.0000
 k(f)        :  0.0000
 alphaj      :  1.0000
 kEN (H0ij)  : -2.3620
 D3 a1       :  0.6900
 D3 a2       :  4.0530
 D3 s8       :  2.0000
 D3atm       :  1.0000
 AESdamp     :  5.5000
 AESrad      :  1.9230
 expscalexp  : -0.2500
 
     -------------------------
     ! NO SOLVENT MODEL USED !
     -------------------------
 
 doing EN charges ...
 sum q : -0.1000000D+01
 point charge moment (au)
     X       Y       Z   
  -0.0000   0.0000   0.0000  total (Debye):    0.000
 
            Z      q(EN)   CN      Cart. coordinates
     1  C   4.0    0.19    4.29    -6.07154    -3.08730     0.00204
     2  C   4.0    0.19    4.29     3.08730    -6.07154    -0.00204
     3  C   4.0    0.19    4.29     6.07154     3.08730     0.00204
     4  C   4.0    0.19    4.29    -3.08730     6.07154    -0.00204
     5  C   4.0    0.20    4.30    -6.78705    -0.19062     0.00338
     6  C   4.0    0.20    4.30     0.19062    -6.78705    -0.00338
     7  C   4.0    0.20    4.30     6.78705     0.19062     0.00338
     8  C   4.0    0.20    4.30    -0.19062     6.78705    -0.00338
     9  N   5.0   -0.22    3.20    -5.78209     0.74300    -2.36414
    10  N   5.0   -0.22    3.21    -0.70058    -5.76355    -2.36463
    11  N   5.0   -0.22    3.20     5.78209    -0.74300    -2.36414
    12  N   5.0   -0.22    3.20     0.74300     5.78209     2.36414
    13  N   5.0   -0.22    3.21    -5.76355     0.70058     2.36463
    14  N   5.0   -0.22    3.20    -0.74300    -5.78209     2.36414
    15  N   5.0   -0.22    3.21     5.76355    -0.70058     2.36463
    16  N   5.0   -0.22    3.21     0.70058     5.76355    -2.36463
    17  N   5.0   -0.22    3.21    -4.65069    -3.36082    -2.31554
    18  N   5.0   -0.22    3.19     3.47075    -4.87304    -2.43778
    19  N   5.0   -0.22    3.21     4.65069     3.36082    -2.31554
    20  N   5.0   -0.22    3.21    -3.36082     4.65069     2.31554
    21  N   5.0   -0.22    3.19    -4.87304    -3.47075     2.43778
    22  N   5.0   -0.22    3.21     3.36082    -4.65069     2.31554
    23  N   5.0   -0.22    3.19     4.87304     3.47075     2.43778
    24  N   5.0   -0.22    3.19    -3.47075     4.87304    -2.43778
    25  C   4.0    0.42    3.25    -4.67775    -1.17620    -3.79827
    26  C   4.0    0.42    3.25     1.22280    -4.72594    -3.83762
    27  C   4.0    0.42    3.25     4.67775     1.17620    -3.79827
    28  C   4.0    0.42    3.25    -1.17620     4.67775     3.79827
    29  C   4.0    0.42    3.25    -4.72594    -1.22280     3.83762
    30  C   4.0    0.42    3.25     1.17620    -4.67775     3.79827
    31  C   4.0    0.42    3.25     4.72594     1.22280     3.83762
    32  C   4.0    0.42    3.25    -1.22280     4.72594    -3.83762
    33  O   6.0   -0.36    1.06    -4.03341    -1.02977    -5.98913
    34  O   6.0   -0.37    1.06     1.02943    -4.03213    -6.00413
    35  O   6.0   -0.36    1.06     4.03341     1.02977    -5.98913
    36  O   6.0   -0.36    1.06    -1.02977     4.03341     5.98913
    37  O   6.0   -0.37    1.06    -4.03213    -1.02943     6.00413
    38  O   6.0   -0.36    1.06     1.02977    -4.03341     5.98913
    39  O   6.0   -0.37    1.06     4.03213     1.02943     6.00413
    40  O   6.0   -0.37    1.06    -1.02943     4.03213    -6.00413
    41  C   4.0    0.23    4.13    -5.65415     3.36889    -3.17419
    42  C   4.0    0.23    4.14    -3.31464    -5.59786    -3.14312
    43  C   4.0    0.23    4.13     5.65415    -3.36889    -3.17419
    44  C   4.0    0.23    4.13     3.36889     5.65415     3.17419
    45  C   4.0    0.23    4.14    -5.59786     3.31464     3.14312
    46  C   4.0    0.23    4.13    -3.36889    -5.65415     3.17419
    47  C   4.0    0.23    4.14     5.59786    -3.31464     3.14312
    48  C   4.0    0.23    4.14     3.31464     5.59786    -3.14312
    49  H   1.0   -0.06    1.00    -7.35028     4.33624    -2.49391
    50  H   1.0   -0.06    1.00    -4.32309    -7.27716    -2.47051
    51  H   1.0   -0.06    1.00     7.35028    -4.33624    -2.49391
    52  H   1.0   -0.06    1.00     4.33624     7.35028     2.49391
    53  H   1.0   -0.06    1.00    -7.27716     4.32309     2.47051
    54  H   1.0   -0.06    1.00    -4.33624    -7.35028     2.49391
    55  H   1.0   -0.06    1.00     7.27716    -4.32309     2.47051
    56  H   1.0   -0.06    1.00     4.32309     7.27716    -2.47051
    57  H   1.0   -0.06    1.01    -5.60580     3.31078    -5.24208
    58  H   1.0   -0.06    1.01    -3.30373    -5.55838    -5.21222
    59  H   1.0   -0.06    1.01     5.60580    -3.31078    -5.24208
    60  H   1.0   -0.06    1.01     3.31078     5.60580     5.24208
    61  H   1.0   -0.06    1.01    -5.55838     3.30373     5.21222
    62  H   1.0   -0.06    1.01    -3.31078    -5.60580     5.24208
    63  H   1.0   -0.06    1.01     5.55838    -3.30373     5.21222
    64  H   1.0   -0.06    1.01     3.30373     5.55838    -5.21222
    65  H   1.0   -0.06    1.00    -8.85218     0.09186     0.01168
    66  H   1.0   -0.06    1.00    -0.09186    -8.85218    -0.01168
    67  H   1.0   -0.06    1.00     8.85218    -0.09186     0.01168
    68  H   1.0   -0.06    1.00     0.09186     8.85218    -0.01168
    69  H   1.0   -0.06    1.00    -7.75931    -4.31118    -0.08060
    70  H   1.0   -0.06    1.00     4.31118    -7.75931     0.08060
    71  H   1.0   -0.06    1.00     7.75931     4.31118    -0.08060
    72  H   1.0   -0.06    1.00    -4.31118     7.75931     0.08060
 
  Z AO/shell   Hii/eV     exponent
  1     Sat Jan 20 17:55:17 CET 2018    EN: 2.200 GAM: 0.531  GM3:-0.4370
     1s    -10.248275    1.266496
  6     Sat Jan 20 17:55:17 CET 2018    EN: 2.550 GAM: 0.417  GM3:-0.0654
     2s    -15.292509    2.030071
     2p    -10.408465    1.801676
  7     Sat Jan 20 17:55:17 CET 2018    EN: 3.040 GAM: 0.444  GM3:-0.1301
     2s    -16.687725    2.226550
     2p    -13.175143    1.981921
  8     Sat Jan 20 17:55:17 CET 2018    EN: 3.440 GAM: 0.468  GM3: 0.0937
     2s    -20.924998    2.442614
     2p    -15.243501    2.233841
 no old-style atom pair restraing (fixing) potential
 
             =======================================
             |                                     |
             |        S C C  calculation           |
             |                                     |
             =======================================
 #proc     :                      1
 Ncao      :                    216
 Nao       :                    216
 Nel       :                    249
 T(el)     :   300.0
 intcut    :    25.0
 scfconv   :  0.100E-05
   qconv   :  0.200E-04
 intneglect:  0.100E-07
 broydamp  :      0.400
 Nshell    :                    120
 iter      E             dE          RMSdq      gap      omega  full diag
   1   -148.0153454 -0.148015E+03  0.988E+00    0.07       0.0  T
   2   -148.0871083 -0.717629E-01  0.952E+00    0.07       1.0  T
   3   -147.9293915  0.157717E+00  0.345E+00    0.10       1.0  T
   4   -148.0075299 -0.781383E-01  0.328E+00    0.11       1.0  T
   5   -148.4913302 -0.483800E+00  0.104E+00    0.13       1.0  T
   6   -148.4511161  0.402141E-01  0.121E+00    0.14       1.0  T
   7   -148.5429355 -0.918195E-01  0.399E-01    0.09       1.0  T
   8   -148.5460500 -0.311442E-02  0.348E-01    0.09       1.0  T
   9   -148.5501817 -0.413175E-02  0.150E-01    0.09       1.0  T
  10   -148.5499969  0.184854E-03  0.152E-01    0.09       1.0  T
  11   -148.5513077 -0.131085E-02  0.516E-02    0.09       1.0  T
  12   -148.5510997  0.207967E-03  0.701E-02    0.09       1.0  T
  13   -148.5513683 -0.268595E-03  0.260E-02    0.09       1.0  T
  14   -148.5513895 -0.211460E-04  0.226E-02    0.09       1.0  T
  15   -148.5514168 -0.273138E-04  0.822E-03    0.09       1.4  T
  16   -148.5514177 -0.865400E-06  0.731E-03    0.09       1.6  T
  17   -148.5514187 -0.107944E-05  0.538E-03    0.09       2.2  T
  18   -148.5514202 -0.141532E-05  0.283E-03    0.09       4.2  T
  19   -148.5514204 -0.241446E-06  0.186E-03    0.09       6.3  T
  20   -148.5514205 -0.133808E-06  0.826E-04    0.09      14.3  T
  21   -148.5514206 -0.178985E-07  0.671E-04    0.09      17.6  T
  22   -148.5514206 -0.252754E-07  0.338E-04    0.09      34.8  T
  23   -148.5514206 -0.304539E-09  0.316E-04    0.09      37.3  T
  24   -148.5514206 -0.577208E-08  0.554E-05    0.09     212.6  T
  25   -148.5514206 -0.128409E-09  0.260E-05    0.09     453.1  T
speedup  7.91
cpu  time for SCC    5.36 s
wall time for SCC    0.68 s

          eigenvalues
 #    :         113        114        115        116        117        118        119        120
 occ. :        2.000      2.000      2.000      2.000      2.000      2.000      2.000      2.000
 eps  :        -7.870     -7.870     -7.857     -7.811     -7.599     -7.575     -7.575     -7.532
 #    :         121        122        123        124        125        126        127        128
 occ. :        2.000      2.000      2.000      2.000      0.844      0.155      0.000      0.000
 eps  :        -7.529     -7.529     -7.519     -7.457     -2.392     -2.305     -2.146     -2.146
 #    :         129        130        131        132        133        134        135        136
 occ. :        0.000      0.000      0.000      0.000      0.000      0.000      0.000      0.000
 eps  :        -2.078     -2.078     -1.952     -1.885      1.798      1.977      1.977      2.027
 
 
 Mulliken/CM5 charges        n(s)   n(p)   n(d)
     1 C   0.05705  0.13331   1.089  2.854  0.000
     2 C   0.05705  0.13331   1.089  2.854  0.000
     3 C   0.05705  0.13331   1.089  2.854  0.000
     4 C   0.05705  0.13331   1.089  2.854  0.000
     5 C   0.05760  0.13482   1.087  2.855  0.000
     6 C   0.05760  0.13482   1.087  2.855  0.000
     7 C   0.05760  0.13482   1.087  2.855  0.000
     8 C   0.05760  0.13482   1.087  2.855  0.000
     9 N  -0.05552 -0.28783   1.147  3.909  0.000
    10 N  -0.04985 -0.28486   1.140  3.909  0.000
    11 N  -0.05552 -0.28783   1.147  3.909  0.000
    12 N  -0.05552 -0.28783   1.147  3.909  0.000
    13 N  -0.04985 -0.28486   1.140  3.909  0.000
    14 N  -0.05552 -0.28783   1.147  3.909  0.000
    15 N  -0.04985 -0.28486   1.140  3.909  0.000
    16 N  -0.04985 -0.28486   1.140  3.909  0.000
    17 N  -0.05235 -0.28575   1.140  3.912  0.000
    18 N  -0.06204 -0.29286   1.162  3.900  0.000
    19 N  -0.05235 -0.28575   1.140  3.912  0.000
    20 N  -0.05235 -0.28575   1.140  3.912  0.000
    21 N  -0.06204 -0.29286   1.162  3.900  0.000
    22 N  -0.05235 -0.28575   1.140  3.912  0.000
    23 N  -0.06204 -0.29286   1.162  3.900  0.000
    24 N  -0.06204 -0.29286   1.162  3.900  0.000
    25 C   0.19430  0.35919   1.060  2.746  0.000
    26 C   0.19720  0.36172   1.059  2.743  0.000
    27 C   0.19430  0.35919   1.060  2.746  0.000
    28 C   0.19430  0.35919   1.060  2.746  0.000
    29 C   0.19720  0.36172   1.059  2.743  0.000
    30 C   0.19430  0.35919   1.060  2.746  0.000
    31 C   0.19720  0.36172   1.059  2.743  0.000
    32 C   0.19720  0.36172   1.059  2.743  0.000
    33 O  -0.42160 -0.46167   1.733  4.689  0.000
    34 O  -0.41808 -0.45820   1.732  4.686  0.000
    35 O  -0.42160 -0.46167   1.733  4.689  0.000
    36 O  -0.42160 -0.46167   1.733  4.689  0.000
    37 O  -0.41808 -0.45820   1.732  4.686  0.000
    38 O  -0.42160 -0.46167   1.733  4.689  0.000
    39 O  -0.41808 -0.45820   1.732  4.686  0.000
    40 O  -0.41808 -0.45820   1.732  4.686  0.000
    41 C   0.02490  0.04457   1.080  2.895  0.000
    42 C   0.02480  0.04738   1.077  2.898  0.000
    43 C   0.02490  0.04457   1.080  2.895  0.000
    44 C   0.02490  0.04457   1.080  2.895  0.000
    45 C   0.02480  0.04738   1.077  2.898  0.000
    46 C   0.02490  0.04457   1.080  2.895  0.000
    47 C   0.02480  0.04738   1.077  2.898  0.000
    48 C   0.02480  0.04738   1.077  2.898  0.000
    49 H   0.03346  0.11101   0.967  0.000  0.000
    50 H   0.03056  0.10777   0.969  0.000  0.000
    51 H   0.03346  0.11101   0.967  0.000  0.000
    52 H   0.03346  0.11101   0.967  0.000  0.000
    53 H   0.03056  0.10777   0.969  0.000  0.000
    54 H   0.03346  0.11101   0.967  0.000  0.000
    55 H   0.03056  0.10777   0.969  0.000  0.000
    56 H   0.03056  0.10777   0.969  0.000  0.000
    57 H   0.07386  0.16085   0.926  0.000  0.000
    58 H   0.07052  0.15736   0.929  0.000  0.000
    59 H   0.07386  0.16085   0.926  0.000  0.000
    60 H   0.07386  0.16085   0.926  0.000  0.000
    61 H   0.07052  0.15736   0.929  0.000  0.000
    62 H   0.07386  0.16085   0.926  0.000  0.000
    63 H   0.07052  0.15736   0.929  0.000  0.000
    64 H   0.07052  0.15736   0.929  0.000  0.000
    65 H   0.02210  0.10122   0.978  0.000  0.000
    66 H   0.02210  0.10122   0.978  0.000  0.000
    67 H   0.02210  0.10122   0.978  0.000  0.000
    68 H   0.02210  0.10122   0.978  0.000  0.000
    69 H   0.02310  0.10196   0.977  0.000  0.000
    70 H   0.02310  0.10196   0.977  0.000  0.000
    71 H   0.02310  0.10196   0.977  0.000  0.000
    72 H   0.02310  0.10196   0.977  0.000  0.000
 
 Wiberg/Mayer (AO) data. WBOs > 0.1 written file <wbo>
 largest (>0.05) Wiberg bond orders for each atom
           total WBO             WBO to atom ...
     1  C   3.976    N   17 0.997    N   21 0.995    C    5 0.951    H   69 0.948
     2  C   3.976    N   22 0.997    N   18 0.995    C    6 0.951    H   70 0.948
     3  C   3.976    N   19 0.997    N   23 0.995    C    7 0.951    H   71 0.948
     4  C   3.976    N   20 0.997    N   24 0.995    C    8 0.951    H   72 0.948
     5  C   3.976    N   13 0.999    N    9 0.995    C    1 0.951    H   65 0.948
     6  C   3.976    N   10 0.999    N   14 0.995    C    2 0.951    H   66 0.948
     7  C   3.976    N   15 0.999    N   11 0.995    C    3 0.951    H   67 0.948
     8  C   3.976    N   16 0.999    N   12 0.995    C    4 0.951    H   68 0.948
     9  N   3.379    C   25 1.072    C    5 0.995    C   41 0.993    O   33 0.136
    10  N   3.385    C   26 1.074    C    6 0.999    C   42 0.996    O   34 0.138
    11  N   3.379    C   27 1.072    C    7 0.995    C   43 0.993    O   35 0.136
    12  N   3.379    C   28 1.072    C    8 0.995    C   44 0.993    O   36 0.136
    13  N   3.385    C   29 1.074    C    5 0.999    C   45 0.996    O   37 0.138
    14  N   3.379    C   30 1.072    C    6 0.995    C   46 0.993    O   38 0.136
    15  N   3.385    C   31 1.074    C    7 0.999    C   47 0.996    O   39 0.138
    16  N   3.385    C   32 1.074    C    8 0.999    C   48 0.996    O   40 0.138
    17  N   3.382    C   25 1.070    C    1 0.997    C   42 0.997    O   33 0.137
    18  N   3.362    C   26 1.060    C    2 0.995    C   43 0.993    O   34 0.134
    19  N   3.382    C   27 1.070    C    3 0.997    C   48 0.997    O   35 0.137
    20  N   3.382    C   28 1.070    C    4 0.997    C   45 0.997    O   36 0.137
    21  N   3.362    C   29 1.060    C    1 0.995    C   46 0.993    O   37 0.134
    22  N   3.382    C   30 1.070    C    2 0.997    C   47 0.997    O   38 0.137
    23  N   3.362    C   31 1.060    C    3 0.995    C   44 0.993    O   39 0.134
    24  N   3.362    C   32 1.060    C    4 0.995    C   41 0.993    O   40 0.134
    25  C   3.873    O   33 1.648    N    9 1.072    N   17 1.070
    26  C   3.870    O   34 1.654    N   10 1.074    N   18 1.060
    27  C   3.873    O   35 1.648    N   11 1.072    N   19 1.070
    28  C   3.873    O   36 1.648    N   12 1.072    N   20 1.070
    29  C   3.870    O   37 1.654    N   13 1.074    N   21 1.060
    30  C   3.873    O   38 1.648    N   14 1.072    N   22 1.070
    31  C   3.870    O   39 1.654    N   15 1.074    N   23 1.060
    32  C   3.870    O   40 1.654    N   16 1.074    N   24 1.060
    33  O   1.984    C   25 1.648    N   17 0.137    N    9 0.136
    34  O   1.988    C   26 1.654    N   10 0.138    N   18 0.134
    35  O   1.984    C   27 1.648    N   19 0.137    N   11 0.136
    36  O   1.984    C   28 1.648    N   20 0.137    N   12 0.136
    37  O   1.988    C   29 1.654    N   13 0.138    N   21 0.134
    38  O   1.984    C   30 1.648    N   22 0.137    N   14 0.136
    39  O   1.988    C   31 1.654    N   15 0.138    N   23 0.134
    40  O   1.988    C   32 1.654    N   16 0.138    N   24 0.134
    41  C   3.964    N    9 0.993    N   24 0.993    H   49 0.965    H   57 0.959
    42  C   3.968    N   17 0.997    N   10 0.996    H   50 0.964    H   58 0.958
    43  C   3.964    N   11 0.993    N   18 0.993    H   51 0.965    H   59 0.959
    44  C   3.964    N   12 0.993    N   23 0.993    H   52 0.965    H   60 0.959
    45  C   3.968    N   20 0.997    N   13 0.996    H   53 0.964    H   61 0.958
    46  C   3.964    N   14 0.993    N   21 0.993    H   54 0.965    H   62 0.959
    47  C   3.968    N   22 0.997    N   15 0.996    H   55 0.964    H   63 0.958
    48  C   3.968    N   19 0.997    N   16 0.996    H   56 0.964    H   64 0.958
    49  H   0.998    C   41 0.965
    50  H   0.998    C   42 0.964
    51  H   0.998    C   43 0.965
    52  H   0.998    C   44 0.965
    53  H   0.998    C   45 0.964
    54  H   0.998    C   46 0.965
    55  H   0.998    C   47 0.964
    56  H   0.998    C   48 0.964
    57  H   0.993    C   41 0.959
    58  H   0.994    C   42 0.958
    59  H   0.993    C   43 0.959
    60  H   0.993    C   44 0.959
    61  H   0.994    C   45 0.958
    62  H   0.993    C   46 0.959
    63  H   0.994    C   47 0.958
    64  H   0.994    C   48 0.958
    65  H   0.997    C    5 0.948
    66  H   0.997    C    6 0.948
    67  H   0.997    C    7 0.948
    68  H   0.997    C    8 0.948
    69  H   0.997    C    1 0.948
    70  H   0.997    C    2 0.948
    71  H   0.997    C    3 0.948
    72  H   0.997    C    4 0.948
 (R)spin-density population
 
 Mulliken population n(s)   n(p)   n(d)
     1 C   0.0006   0.000  0.001  0.000
     2 C   0.0006   0.000  0.001  0.000
     3 C   0.0006   0.000  0.001  0.000
     4 C   0.0006   0.000  0.001  0.000
     5 C   0.0005   0.000  0.001  0.000
     6 C   0.0005   0.000  0.001  0.000
     7 C   0.0005   0.000  0.001  0.000
     8 C   0.0005   0.000  0.001  0.000
     9 N   0.0087   0.002  0.007  0.000
    10 N   0.0096   0.002  0.008  0.000
    11 N   0.0087   0.002  0.007  0.000
    12 N   0.0087   0.002  0.007  0.000
    13 N   0.0096   0.002  0.008  0.000
    14 N   0.0087   0.002  0.007  0.000
    15 N   0.0096   0.002  0.008  0.000
    16 N   0.0096   0.002  0.008  0.000
    17 N   0.0090   0.001  0.008  0.000
    18 N   0.0088   0.002  0.006  0.000
    19 N   0.0090   0.001  0.008  0.000
    20 N   0.0090   0.001  0.008  0.000
    21 N   0.0088   0.002  0.006  0.000
    22 N   0.0090   0.001  0.008  0.000
    23 N   0.0088   0.002  0.006  0.000
    24 N   0.0088   0.002  0.006  0.000
    25 C   0.0649   0.000  0.065  0.000
    26 C   0.0662   0.000  0.066  0.000
    27 C   0.0649   0.000  0.065  0.000
    28 C   0.0649   0.000  0.065  0.000
    29 C   0.0662   0.000  0.066  0.000
    30 C   0.0649   0.000  0.065  0.000
    31 C   0.0662   0.000  0.066  0.000
    32 C   0.0662   0.000  0.066  0.000
    33 O   0.0355   0.000  0.036  0.000
    34 O   0.0365   0.000  0.036  0.000
    35 O   0.0355   0.000  0.036  0.000
    36 O   0.0355   0.000  0.036  0.000
    37 O   0.0365   0.000  0.036  0.000
    38 O   0.0355   0.000  0.036  0.000
    39 O   0.0365   0.000  0.036  0.000
    40 O   0.0365   0.000  0.036  0.000
    41 C   0.0034   0.001  0.003  0.000
    42 C   0.0018   0.000  0.001  0.000
    43 C   0.0034   0.001  0.003  0.000
    44 C   0.0034   0.001  0.003  0.000
    45 C   0.0018   0.000  0.001  0.000
    46 C   0.0034   0.001  0.003  0.000
    47 C   0.0018   0.000  0.001  0.000
    48 C   0.0018   0.000  0.001  0.000
    49 H   0.0002   0.000  0.000  0.000
    50 H   0.0004   0.000  0.000  0.000
    51 H   0.0002   0.000  0.000  0.000
    52 H   0.0002   0.000  0.000  0.000
    53 H   0.0004   0.000  0.000  0.000
    54 H   0.0002   0.000  0.000  0.000
    55 H   0.0004   0.000  0.000  0.000
    56 H   0.0004   0.000  0.000  0.000
    57 H   0.0004   0.000  0.000  0.000
    58 H   0.0005   0.000  0.000  0.000
    59 H   0.0004   0.000  0.000  0.000
    60 H   0.0004   0.000  0.000  0.000
    61 H   0.0005   0.000  0.000  0.000
    62 H   0.0004   0.000  0.000  0.000
    63 H   0.0005   0.000  0.000  0.000
    64 H   0.0005   0.000  0.000  0.000
    65 H   0.0016   0.002  0.000  0.000
    66 H   0.0016   0.002  0.000  0.000
    67 H   0.0016   0.002  0.000  0.000
    68 H   0.0016   0.002  0.000  0.000
    69 H   0.0014   0.001  0.000  0.000
    70 H   0.0014   0.001  0.000  0.000
    71 H   0.0014   0.001  0.000  0.000
    72 H   0.0014   0.001  0.000  0.000
 (R)spin-density
 
 cube file module (SG, 7/16)
 cube_pthr     :   0.005
 cube_step     :   0.400
 non-zero P (%):  11.700   nmat:    2742
 Grid Boundaries (x y z) :
   11.8521755451094        11.8521755451094        9.00413177240458     
  -11.8521755451094       -11.8521755451094       -9.00413177240458     
 Total # of points                165600
 writing spindensity.cub
 N    (numint) :  0.838
cpu  time for cube    6.98 s
wall time for cube    6.80 s
 
molecular dipole:
                 x           y           z       tot (Debye)
 q only:        0.000      -0.000      -0.000
   full:        0.000      -0.000      -0.000       0.000
molecular quadrupole (traceless):
                xx          xy          yy          xz          yz          zz
 q only:       50.629      -0.000      50.629      -0.000       0.000    -101.257
  q+dip:       61.109      -0.000      61.109      -0.000       0.000    -122.218
   full:       61.877      -0.000      61.877      -0.000       0.000    -123.754
 SCC converged in                     25  cycles
 
SCC energy    :    -148.5514206
rep           :       1.3952364
ES            :       0.1059007
AES           :       0.0208448
disp          :      -0.1011822
XB            :       0.0000000
fix           :       0.0000000
total E       :    -147.2573663
atomizationE  :      19.7882922    12417.34
(atE without considerung molecular charge,
 total energy contains solvation terms)
H-L gap (eV)  :          0.0875
 
       ===================================
       |          GMD driver             |
       ===================================
 
 
 MD time /ps        :   50.00
 dt /fs             :    4.00
 SCC accuracy       :    1.00
 temperature /K     :  298.15
 max steps          : 12500
 block length (av.) :   875
 dumpstep(trj) /fs  :   50.00    12
 dumpstep(coords)/fs: 1000.00   250
 minimum runtime(ps):   5.0
 maximum runtime(ps):  50.0
 H atoms mass (amu) :     4
 # deg. of freedom  :   132
 SHAKE on. # bonds  :                    84  all: T
 Berendsen THERMOSTAT on
 EQUILIBRATION mode
         time (ps)    <Epot>      Ekin   <T>   T     Etot
  q data taken from xtbrestart
  CAMM data taken from xtbrestart
      0    0.00      0.00000   0.0374    0.    0.  -147.21998
est. speed in wall clock h for 100 ps :  4.51
    200    0.80   -146.52723   0.0195   98.   94.  -147.24534
    400    1.60   -146.89455   0.0192   94.   92.  -147.24241
    600    2.40   -147.01742   0.0206   92.   99.  -147.24454
    800    3.20   -147.07895   0.0206   92.   98.  -147.24581
block <Epot> / <T> :    -147.26290   91.     drift:  0.99D+02   Tbath : 134.
   1000    4.00   -147.11516   0.0298   95.  143.  -147.22841
   1200    4.80   -147.13837   0.0286  101.  137.  -147.22500
   1400    5.60   -147.15491   0.0263  106.  126.  -147.22320
   1600    6.40   -147.16727   0.0274  109.  131.  -147.22465
block <Epot> / <T> :    -147.25472  132.     drift:  0.99D+02   Tbath : 201.
   1800    7.20   -147.17678   0.0387  113.  185.  -147.20763
   2000    8.00   -147.18319   0.0424  121.  203.  -147.19706
   2200    8.80   -147.18826   0.0402  128.  192.  -147.19936
   2400    9.60   -147.19252   0.0404  134.  193.  -147.19688
   2600   10.40   -147.19613   0.0362  139.  173.  -147.20403
block <Epot> / <T> :    -147.24019  197.     drift:  0.99D+02   Tbath : 298.
   2800   11.20   -147.19826   0.0529  148.  253.  -147.16185
   3000   12.00   -147.19958   0.0551  158.  264.  -147.14984
   3200   12.80   -147.20069   0.0576  167.  276.  -147.16422
   3400   13.60   -147.20171   0.0653  175.  312.  -147.14961
block <Epot> / <T> :    -147.21904  293.     drift:  0.15D-01   Tbath : 298.
   3600   14.40   -147.20264   0.0593  181.  284.  -147.15825
   3800   15.20   -147.20331   0.0574  187.  275.  -147.15000
   4000   16.00   -147.20398   0.0658  193.  315.  -147.15953
   4200   16.80   -147.20459   0.0671  198.  321.  -147.15967
block <Epot> / <T> :    -147.21700  298.     drift:  0.13D-01   Tbath : 298.
   4400   17.60   -147.20522   0.0627  203.  300.  -147.15299
   4600   18.40   -147.20575   0.0621  207.  297.  -147.15861
   4800   19.20   -147.20627   0.0614  211.  294.  -147.15894
   5000   20.00   -147.20670   0.0700  214.  335.  -147.15451
   5200   20.80   -147.20716   0.0585  217.  280.  -147.15910
block <Epot> / <T> :    -147.21794  298.     drift:  0.69D-02   Tbath : 298.
   5400   21.60   -147.20755   0.0660  220.  316.  -147.15195
   5600   22.40   -147.20792   0.0615  223.  294.  -147.15802
   5800   23.20   -147.20829   0.0652  226.  312.  -147.16083
   6000   24.00   -147.20862   0.0598  228.  286.  -147.15553
block <Epot> / <T> :    -147.21782  297.     drift:  0.27D-03   Tbath : 298.
 GOOD AVERAGES REACHED
 average properties 
 Epot               :  -147.232799011034     
 Epot (accurate SCC):  -147.232880782738     
 Ekin               :  4.797418475819799E-002
 Etot               :  -147.184824826275     
 T                  :   229.530780111697     
 normal exit of md()
 
 MD time /ps        :   50.00
 dt /fs             :    4.00
 SCC accuracy       :    1.00
 temperature /K     :  298.15
 max steps          : 50000
 block length (av.) :   875
 dumpstep(trj) /fs  :   50.00    12
 dumpstep(coords)/fs: 1000.00   250
 minimum runtime(ps):  50.0
 maximum runtime(ps): 200.0
 H atoms mass (amu) :     4
 # deg. of freedom  :   132
 SHAKE on. # bonds  :                    84  all: T
 Berendsen THERMOSTAT on
 GMD mode
 RESTART
         time (ps)    <Epot>      Ekin   <T>   T     Etot
  q data taken from xtbrestart
  CAMM data taken from xtbrestart
 reading input structure for Re-R0 averaging
      0    0.00      0.00000   0.0551    0.    0.  -147.15325
est. speed in wall clock h for 100 ps :  4.72
    200    0.80   -146.48397   0.0689  301.  329.  -147.15309
    400    1.60   -146.84887   0.0551  298.  264.  -147.15541
    600    2.40   -146.97147   0.0616  300.  295.  -147.14929
    800    3.20   -147.03287   0.0729  299.  349.  -147.15036
block <Epot> / <T> :    -147.21670  299.     drift:  0.99D+02   Tbath : 298.
   1000    4.00   -147.06979   0.0588  299.  281.  -147.15759
   1200    4.80   -147.09432   0.0626  299.  299.  -147.16087
   1400    5.60   -147.11183   0.0682  299.  326.  -147.15853
   1600    6.40   -147.12505   0.0650  299.  311.  -147.15358
block <Epot> / <T> :    -147.21719  298.     drift:  0.99D+02   Tbath : 298.
   1800    7.20   -147.13518   0.0685  298.  328.  -147.14820
   2000    8.00   -147.14343   0.0528  299.  252.  -147.15730
   2200    8.80   -147.15015   0.0721  299.  345.  -147.16008
   2400    9.60   -147.15582   0.0531  299.  254.  -147.15802
   2600   10.40   -147.16063   0.0602  299.  288.  -147.14970
block <Epot> / <T> :    -147.21785  299.     drift:  0.99D+02   Tbath : 298.
   2800   11.20   -147.16473   0.0640  299.  306.  -147.15527
   3000   12.00   -147.16826   0.0637  298.  305.  -147.15711
   3200   12.80   -147.17137   0.0640  298.  306.  -147.15629
   3400   13.60   -147.17412   0.0606  298.  290.  -147.15478
block <Epot> / <T> :    -147.21790  298.     drift: -0.43D-03   Tbath : 298.
   3600   14.40   -147.17657   0.0659  298.  315.  -147.15794
   3800   15.20   -147.17873   0.0593  298.  284.  -147.15067
   4000   16.00   -147.18067   0.0618  298.  296.  -147.15686
   4200   16.80   -147.18237   0.0607  298.  290.  -147.15788
block <Epot> / <T> :    -147.21764  298.     drift: -0.14D-03   Tbath : 298.
   4400   17.60   -147.18399   0.0667  298.  319.  -147.15272
   4600   18.40   -147.18549   0.0661  298.  316.  -147.15801
   4800   19.20   -147.18684   0.0564  298.  270.  -147.15431
   5000   20.00   -147.18803   0.0624  298.  298.  -147.15900
   5200   20.80   -147.18912   0.0557  298.  267.  -147.16195
block <Epot> / <T> :    -147.21741  298.     drift:  0.16D-03   Tbath : 298.
   5400   21.60   -147.19020   0.0620  298.  297.  -147.15216
   5600   22.40   -147.19120   0.0588  298.  281.  -147.15145
   5800   23.20   -147.19211   0.0600  298.  287.  -147.15958
   6000   24.00   -147.19295   0.0751  298.  359.  -147.14916
block <Epot> / <T> :    -147.21773  298.     drift:  0.74D-04   Tbath : 298.
   6200   24.80   -147.19374   0.0636  298.  304.  -147.15070
   6400   25.60   -147.19450   0.0506  298.  242.  -147.16139
   6600   26.40   -147.19522   0.0653  298.  313.  -147.15023
   6800   27.20   -147.19588   0.0645  298.  309.  -147.15695
   7000   28.00   -147.19653   0.0647  298.  310.  -147.15234
block <Epot> / <T> :    -147.21807  299.     drift: -0.16D-03   Tbath : 298.
   7200   28.80   -147.19711   0.0635  298.  304.  -147.15759
   7400   29.60   -147.19768   0.0539  298.  258.  -147.15539
   7600   30.40   -147.19817   0.0602  298.  288.  -147.14795
   7800   31.20   -147.19866   0.0577  298.  276.  -147.15265
block <Epot> / <T> :    -147.21725  297.     drift:  0.17D-04   Tbath : 298.
   8000   32.00   -147.19913   0.0587  298.  281.  -147.16242
   8200   32.80   -147.19959   0.0610  298.  292.  -147.15149
   8400   33.60   -147.20000   0.0633  298.  303.  -147.15220
   8600   34.40   -147.20042   0.0568  298.  272.  -147.15970
block <Epot> / <T> :    -147.21759  298.     drift:  0.12D-03   Tbath : 298.
   8800   35.20   -147.20082   0.0575  298.  275.  -147.15102
   9000   36.00   -147.20120   0.0525  298.  251.  -147.16301
   9200   36.80   -147.20156   0.0558  298.  267.  -147.15789
   9400   37.60   -147.20191   0.0544  298.  260.  -147.15328
   9600   38.40   -147.20222   0.0601  298.  287.  -147.16599
block <Epot> / <T> :    -147.21782  298.     drift:  0.38D-04   Tbath : 298.
   9800   39.20   -147.20251   0.0531  298.  254.  -147.15436
  10000   40.00   -147.20280   0.0596  298.  285.  -147.15082
  10200   40.80   -147.20308   0.0655  298.  313.  -147.15725
  10400   41.60   -147.20337   0.0580  298.  278.  -147.16344
block <Epot> / <T> :    -147.21701  298.     drift:  0.47D-04   Tbath : 298.
  10600   42.40   -147.20363   0.0561  298.  269.  -147.15181
  10800   43.20   -147.20390   0.0593  298.  284.  -147.16073
  11000   44.00   -147.20415   0.0617  298.  295.  -147.15885
  11200   44.80   -147.20439   0.0642  298.  307.  -147.16325
block <Epot> / <T> :    -147.21779  298.     drift:  0.22D-04   Tbath : 298.
  11400   45.60   -147.20462   0.0658  298.  315.  -147.14790
  11600   46.40   -147.20484   0.0673  298.  322.  -147.16315
  11800   47.20   -147.20505   0.0653  298.  313.  -147.15915
  12000   48.00   -147.20521   0.0552  298.  264.  -147.16306
  12200   48.80   -147.20539   0.0666  298.  319.  -147.14824
block <Epot> / <T> :    -147.21652  297.     drift:  0.31D-03   Tbath : 298.
  12400   49.60   -147.20558   0.0601  298.  288.  -147.15930
 GOOD AVERAGES REACHED
 average properties 
 Epot               :  -147.217453670477     
 Epot (accurate SCC):  -147.217511555674     
 Ekin               :  6.231047719046889E-002
 Etot               :  -147.155143193286     
 T                  :   298.122261185822     
 corrections to Re Z-matrix:
   1  C     0.000000      0.0000      0.0000     0    0    0
   2  C    -0.093325      0.0000      0.0000     1    0    0
   3  C    -0.090924     -0.0108      0.0000     2    1    0
   4  C    -0.091326     -0.0869      2.6686     1    2    3
   5  C    -0.000000     -0.0613      3.8485     1    2    3
   6  C    -0.000000      0.2508     -0.0921     2    1    3
   7  C    -0.000000      0.1710     -0.4657     3    2    1
   8  C    -0.000000      0.1678     -0.5397     4    1    2
   9  N    -0.000000     -0.9770     -0.0962     5    1    2
  10  N    -0.000000      0.1541     -3.6242     6    2    1
  11  N    -0.000000     -1.0217      0.0540     7    3    2
  12  N    -0.000000     -1.0158      0.2053     8    4    1
  13  N    -0.000000      0.0956      3.7414     5    1    2
  14  N    -0.000000     -1.0190      0.2196     6    2    1
  15  N    -0.000000      0.1357      3.8189     7    3    2
  16  N    -0.000000      0.1366     -3.5390     8    4    1
  17  N    -0.000000      1.8698      1.8721     1    2    3
  18  N    -0.000000     -4.0835      6.1276     2    1    3
  19  N    -0.000000      1.7938     -2.2024     3    2    1
  20  N    -0.000000      2.0135     -1.8208     4    1    2
  21  N    -0.000000     -5.2706      5.6451     1    2    3
  22  N    -0.000000      1.8624      1.9298     2    1    3
  23  N    -0.000000     -3.8326     -6.3193     3    2    1
  24  N    -0.000000     -5.3998     -5.8670     4    1    2
  25  C    -0.000000     -0.5435      7.4690     9    5    1
  26  C    -0.000000     -1.4376      5.7128    10    6    2
  27  C    -0.000000     -0.3814      6.8541    11    7    3
  28  C    -0.000000     -0.4770     -3.3577    12    8    4
  29  C    -0.000000     -1.4725     -2.9626    13    5    1
  30  C    -0.000000     -0.4767     -3.8556    14    6    2
  31  C    -0.000000     -1.5444     -3.5941    15    7    3
  32  C    -0.000000     -1.5404      6.0405    16    8    4
  33  O    -0.000000     -0.2156     -4.1265    25    9    5
  34  O    -0.000000      0.3463     -6.6950    26   10    6
  35  O    -0.000000     -0.2616     -3.2933    27   11    7
  36  O    -0.000000     -0.2151      3.3241    28   12    8
  37  O    -0.000000      0.3318      7.5103    29   13    5
  38  O    -0.000000     -0.2640      3.8010    30   14    6
  39  O    -0.000000      0.3546      8.8315    31   15    7
  40  O    -0.000000      0.3397     -8.8462    32   16    8
  41  C    -0.000000     -3.4415      0.6478     9    5    1
  42  C    -0.000000     -2.2215     -6.2674    10    6    2
  43  C    -0.000000     -3.3444      1.0237    11    7    3
  44  C    -0.000000     -3.3850     -0.7795    12    8    4
  45  C    -0.000000     -2.2267      6.7461    13    5    1
  46  C    -0.000000     -3.4737     -0.5505    14    6    2
  47  C    -0.000000     -2.2277      6.8048    15    7    3
  48  C    -0.000000     -2.2980     -6.3522    16    8    4
  49  H    -0.000000      1.7926     -1.5350    41    9    5
  50  H    -0.000000      0.9787      6.1990    42   10    6
  51  H    -0.000000      1.7631     -1.9140    43   11    7
  52  H    -0.000000      1.7729      1.8111    44   12    8
  53  H    -0.000000      1.0268     -6.2590    45   13    5
  54  H    -0.000000      1.8057      1.5000    46   14    6
  55  H    -0.000000      1.0415     -6.4019    47   15    7
  56  H    -0.000000      1.0402      6.4947    48   16    8
  57  H    -0.000000      0.3472     -4.2060    41    9    5
  58  H    -0.000000      0.3279      3.1803    42   10    6
  59  H    -0.000000      0.3719     -4.5342    43   11    7
  60  H    -0.000000      0.4123      4.1795    44   12    8
  61  H    -0.000000      0.3181     -3.6763    45   13    5
  62  H    -0.000000      0.4037      3.8694    46   14    6
  63  H    -0.000000      0.2539     -3.8353    47   15    7
  64  H    -0.000000      0.2443      3.4228    48   16    8
  65  H    -0.000000      0.9442      1.3657     5    1    2
  66  H    -0.000000      0.9530     -1.2342     6    2    1
  67  H    -0.000000      0.9319      1.4244     7    3    2
  68  H    -0.000000      0.9256     -1.1818     8    4    1
  69  H    -0.000000     -1.7520      5.2873     1    2    3
  70  H    -0.000000     -0.1247      7.4952     2    1    3
  71  H    -0.000000     -0.2309     -7.4987     3    2    1
  72  H    -0.000000     -1.9629     -5.5065     4    1    2
Be      (a,b,c, in MHz) :     92.031     92.031     81.161
Be - B0 (a,b,c, in MHz) :     -1.927     -1.672     -2.018
 corrected structure on <xtb_mdav.coord>
 normal exit of md()
 
speedup  7.73
cpu  time for all    1 d  3 h 44 m 23.5 s
wall time for all    0 d  3 h 35 m 10.8 s
