 
        ______________________________________
       |                                      |
       |           ==================         |
       |                 x T B                |
       |           ==================         |
       |               S. Grimme              |
       |        Universitaet Bonn, MCTC       |
       |         2015-18, Version 5.0         |
       |      Sat Jan 20 11:00:33 CET 2018    |
       |______________________________________|
 
        This code comes without any warranty
        for non-commercial, academia use only.
        Cite GFN-xTB work as:
        S. Grimme, C. Bannwarth, P. Shushkov
        JCTC, 13 (2017) 1989-2009
        for GFN2:
        C. Bannwarth, S. Ehlert, S. Grimme
        to be published.
        sTDA-xTB:
        S. Grimme  &  C. Bannwarth, JCP 145 (2016) 054103
        in the mass-spec context additionally:
        V. Asgeirsson, C.Bauer, S. Grimme, Chem. Sci. 8 (2017) 4879
 
        with help from
        P. Shushkov, G. Brandenburg, S. Dohm, J. Pisarek,
        F. März, M. Checinski, S. Ehrlich, S. Spicher, 
        P. Pracht, E. Caldeweyher, S. Ehlert, and C. Bannwarth.
 
        usage        :
        xtb <coord_file> [options]
        where <coord_file> is a valid file of TM)
        (*coord, Bohr) or xmol (*xyz, Angstroem)
        format.

        options:
        -chrg <int>   : molecular charge
        -uhf  <int>   : # of unpaired electrons(=2*S)
        -nox          : skip second, extended part in sTDA-xTB
        -pop          : do population analysis
                      : (default for -nox)
        -mowr <real>  : cut MO write above (def.3 Eh)
        -molden       : write formatted molden file
        -parx <file>  : read parameters for sTDA-xTB
                        calc (def:~/.param_stda2.xtb)
        -parv <file>  : read parameters for vTB part in
                        sTDA-xTB (def: ~/.param_stda1.xtb)
        -xtemp <real> : el. temp for xTB (def. 0 K)
        -etemp <real> : el. temp for GFN (def. 300 K)
        -fod          : do a xTB calc. of the FOD
                        and write molden.input file 
                        with appropriate occupations
                        for plotting. Def. T=12500 K
 
        -gfn          : use GFN-xTB
        -grad         : GFN-xTB gradient
        -acc <real>   : GFN-xTB accuracy (def. 1.0)
        -opt [level]  : optimize at GFN-xTB
                      : level=crude,vloose,loose,
                      :       tight,vtight
        -hess         : compute Hessian at GFN-xTB
        -ohess        : optimize and compute Hessian
        -omd          : optimize and do MD
        -siman        : conformational search
        -screen       : opt. loop over ensemble
        -gmd          : annealed MD for GMD procedure
        -modef        : vib mode following
        -gbsa [string1] [string2]
                        use GBSA implicit solvent
                        for solvent [string1] and
                        solvation state [string2]=
                        reference, bar1M (default=1M)
        additional GFN/opt/MD/siman options read from
        $XTBHOME/.xtbrc or $set in coordinate file
 
       spin and charge state information can be on:
       <.CHRG> (charge) and <.UHF> (=nalpha-nbeta)
       -uhf and -chrg override the file info.
       useful machine settings:
       setenv MKL_NUM_THREADS <NCORE_ON_YOUR_MACHINE>
       setenv OMP_STACKSIZE 500m
       limit stacksize unlimited
 
       total energies in Eh, gaps/HL energies in eV
       please read REVISION and HOWTO files carefully
 =============================
  # OMP threads =                     1
 =============================
 
 xtbhome directory:/Applications/xtb/
 
 argument                      1 :-gfn
 argument                      2 :-gbsa
 argument                      3 :h2o
 
 number of atoms            :    72
 number of electrons        :   249
 charge                     : -1
 spin                       : 0.5
 first test random number   :  0.8022
 
 
KAB for pair M(3d)-M(3d) :  1.1000
KAB for pair M(4d)-M(4d) :  1.2000
KAB for pair M(5d)-M(5d) :  1.2000
 -----------------------------------------
  G F N (Geometry, Frequency, Non-covalent)
        parametrization, version                     2
 /Applications/xtb/.param_gfn2.xtb
 -----------------------------------------
      method parameters     
 k(s)        :  1.8500
 k(p)        :  2.2500
 k(d)        :  2.0000
 k(f)        :  0.0000
 alphaj      :  1.0000
 kEN (H0ij)  : -2.3620
 D3 a1       :  0.6900
 D3 a2       :  4.0530
 D3 s8       :  2.0000
 D3atm       :  1.0000
 AESdamp     :  5.5000
 AESrad      :  1.9230
 expscalexp  : -0.2500
 
 Solvent             : h2o
 GBSA parameter file : /Applications/xtb/.param_gbsa_h2o
 Gsolv ref. state (COSMO-RS): gsolv [1 M gas/solution]
 temperature (mdtemp)       :    298.150000000000     
 dielectric constant        :    78.5000000000000     
 rho                        :   0.998000000000000     
 mass                       :    18.0000000000000     
 surface tension            :    15.5689470637553     
 probe radius               :   0.976041290000000     
 vdW radii scaling          :    1.00000000000000     
 Gshift (Eh)                :   2.075470419022681E-003
 c1                         :    1.58079374000000     
 soset                      :   7.194512000000000E-002
 HB correction              :  T
 
 doing EN charges ...
 sum q : -0.1000000D+01
 point charge moment (au)
     X       Y       Z   
  -0.0000   0.0000   0.0000  total (Debye):    0.000
 
            Z      q(EN)   CN      Cart. coordinates
     1  C   4.0    0.19    4.29    -6.07154    -3.08730     0.00204
     2  C   4.0    0.19    4.29     3.08730    -6.07154    -0.00204
     3  C   4.0    0.19    4.29     6.07154     3.08730     0.00204
     4  C   4.0    0.19    4.29    -3.08730     6.07154    -0.00204
     5  C   4.0    0.20    4.30    -6.78705    -0.19062     0.00338
     6  C   4.0    0.20    4.30     0.19062    -6.78705    -0.00338
     7  C   4.0    0.20    4.30     6.78705     0.19062     0.00338
     8  C   4.0    0.20    4.30    -0.19062     6.78705    -0.00338
     9  N   5.0   -0.22    3.20    -5.78209     0.74300    -2.36414
    10  N   5.0   -0.22    3.21    -0.70058    -5.76355    -2.36463
    11  N   5.0   -0.22    3.20     5.78209    -0.74300    -2.36414
    12  N   5.0   -0.22    3.20     0.74300     5.78209     2.36414
    13  N   5.0   -0.22    3.21    -5.76355     0.70058     2.36463
    14  N   5.0   -0.22    3.20    -0.74300    -5.78209     2.36414
    15  N   5.0   -0.22    3.21     5.76355    -0.70058     2.36463
    16  N   5.0   -0.22    3.21     0.70058     5.76355    -2.36463
    17  N   5.0   -0.22    3.21    -4.65069    -3.36082    -2.31554
    18  N   5.0   -0.22    3.19     3.47075    -4.87304    -2.43778
    19  N   5.0   -0.22    3.21     4.65069     3.36082    -2.31554
    20  N   5.0   -0.22    3.21    -3.36082     4.65069     2.31554
    21  N   5.0   -0.22    3.19    -4.87304    -3.47075     2.43778
    22  N   5.0   -0.22    3.21     3.36082    -4.65069     2.31554
    23  N   5.0   -0.22    3.19     4.87304     3.47075     2.43778
    24  N   5.0   -0.22    3.19    -3.47075     4.87304    -2.43778
    25  C   4.0    0.42    3.25    -4.67775    -1.17620    -3.79827
    26  C   4.0    0.42    3.25     1.22280    -4.72594    -3.83762
    27  C   4.0    0.42    3.25     4.67775     1.17620    -3.79827
    28  C   4.0    0.42    3.25    -1.17620     4.67775     3.79827
    29  C   4.0    0.42    3.25    -4.72594    -1.22280     3.83762
    30  C   4.0    0.42    3.25     1.17620    -4.67775     3.79827
    31  C   4.0    0.42    3.25     4.72594     1.22280     3.83762
    32  C   4.0    0.42    3.25    -1.22280     4.72594    -3.83762
    33  O   6.0   -0.36    1.06    -4.03341    -1.02977    -5.98913
    34  O   6.0   -0.37    1.06     1.02943    -4.03213    -6.00413
    35  O   6.0   -0.36    1.06     4.03341     1.02977    -5.98913
    36  O   6.0   -0.36    1.06    -1.02977     4.03341     5.98913
    37  O   6.0   -0.37    1.06    -4.03213    -1.02943     6.00413
    38  O   6.0   -0.36    1.06     1.02977    -4.03341     5.98913
    39  O   6.0   -0.37    1.06     4.03213     1.02943     6.00413
    40  O   6.0   -0.37    1.06    -1.02943     4.03213    -6.00413
    41  C   4.0    0.23    4.13    -5.65415     3.36889    -3.17419
    42  C   4.0    0.23    4.14    -3.31464    -5.59786    -3.14312
    43  C   4.0    0.23    4.13     5.65415    -3.36889    -3.17419
    44  C   4.0    0.23    4.13     3.36889     5.65415     3.17419
    45  C   4.0    0.23    4.14    -5.59786     3.31464     3.14312
    46  C   4.0    0.23    4.13    -3.36889    -5.65415     3.17419
    47  C   4.0    0.23    4.14     5.59786    -3.31464     3.14312
    48  C   4.0    0.23    4.14     3.31464     5.59786    -3.14312
    49  H   1.0   -0.06    1.00    -7.35028     4.33624    -2.49391
    50  H   1.0   -0.06    1.00    -4.32309    -7.27716    -2.47051
    51  H   1.0   -0.06    1.00     7.35028    -4.33624    -2.49391
    52  H   1.0   -0.06    1.00     4.33624     7.35028     2.49391
    53  H   1.0   -0.06    1.00    -7.27716     4.32309     2.47051
    54  H   1.0   -0.06    1.00    -4.33624    -7.35028     2.49391
    55  H   1.0   -0.06    1.00     7.27716    -4.32309     2.47051
    56  H   1.0   -0.06    1.00     4.32309     7.27716    -2.47051
    57  H   1.0   -0.06    1.01    -5.60580     3.31078    -5.24208
    58  H   1.0   -0.06    1.01    -3.30373    -5.55838    -5.21222
    59  H   1.0   -0.06    1.01     5.60580    -3.31078    -5.24208
    60  H   1.0   -0.06    1.01     3.31078     5.60580     5.24208
    61  H   1.0   -0.06    1.01    -5.55838     3.30373     5.21222
    62  H   1.0   -0.06    1.01    -3.31078    -5.60580     5.24208
    63  H   1.0   -0.06    1.01     5.55838    -3.30373     5.21222
    64  H   1.0   -0.06    1.01     3.30373     5.55838    -5.21222
    65  H   1.0   -0.06    1.00    -8.85218     0.09186     0.01168
    66  H   1.0   -0.06    1.00    -0.09186    -8.85218    -0.01168
    67  H   1.0   -0.06    1.00     8.85218    -0.09186     0.01168
    68  H   1.0   -0.06    1.00     0.09186     8.85218    -0.01168
    69  H   1.0   -0.06    1.00    -7.75931    -4.31118    -0.08060
    70  H   1.0   -0.06    1.00     4.31118    -7.75931     0.08060
    71  H   1.0   -0.06    1.00     7.75931     4.31118    -0.08060
    72  H   1.0   -0.06    1.00    -4.31118     7.75931     0.08060
 
  Z AO/shell   Hii/eV     exponent
  1     Sat Jan 20 17:55:17 CET 2018    EN: 2.200 GAM: 0.531  GM3:-0.4370
     1s    -10.248275    1.266496
  6     Sat Jan 20 17:55:17 CET 2018    EN: 2.550 GAM: 0.417  GM3:-0.0654
     2s    -15.292509    2.030071
     2p    -10.408465    1.801676
  7     Sat Jan 20 17:55:17 CET 2018    EN: 3.040 GAM: 0.444  GM3:-0.1301
     2s    -16.687725    2.226550
     2p    -13.175143    1.981921
  8     Sat Jan 20 17:55:17 CET 2018    EN: 3.440 GAM: 0.468  GM3: 0.0937
     2s    -20.924998    2.442614
     2p    -15.243501    2.233841
 no old-style atom pair restraing (fixing) potential
 
             =======================================
             |                                     |
             |        S C C  calculation           |
             |                                     |
             =======================================
 #proc     :                      1
 Ncao      :                    216
 Nao       :                    216
 Nel       :                    249
 T(el)     :   300.0
 intcut    :    25.0
 scfconv   :  0.100E-05
   qconv   :  0.200E-04
 intneglect:  0.100E-07
 broydamp  :      0.400
 Nshell    :                    120
  q data taken from xtbrestart
  CAMM data taken from xtbrestart
 iter      E             dE          RMSdq      gap      omega  full diag
   1   -148.7599017 -0.148760E+03  0.251E-05    0.08       0.0  T
   2   -148.7599017 -0.332534E-11  0.237E-05    0.08     496.8  T
   3   -148.7599017 -0.101750E-10  0.151E-05    0.08     782.4  T
speedup  1.40
cpu  time for SCC    0.24 s
wall time for SCC    0.17 s

          eigenvalues
 #    :         113        114        115        116        117        118        119        120
 occ. :        2.000      2.000      2.000      2.000      2.000      2.000      2.000      2.000
 eps  :       -11.556    -11.496    -11.450    -11.450    -11.343    -11.343    -11.257    -11.109
 #    :         121        122        123        124        125        126        127        128
 occ. :        2.000      2.000      2.000      2.000      0.835      0.165      0.000      0.000
 eps  :       -11.045    -10.996    -10.996    -10.893     -6.160     -6.076     -5.902     -5.902
 #    :         129        130        131        132        133        134        135        136
 occ. :        0.000      0.000      0.000      0.000      0.000      0.000      0.000      0.000
 eps  :        -5.841     -5.841     -5.708     -5.630     -1.473     -1.258     -1.258     -1.235
 
 
 Mulliken/CM5 charges        n(s)   n(p)   n(d)
     1 C   0.07660  0.15285   1.085  2.839  0.000
     2 C   0.07660  0.15285   1.085  2.839  0.000
     3 C   0.07660  0.15285   1.085  2.839  0.000
     4 C   0.07660  0.15285   1.085  2.839  0.000
     5 C   0.07701  0.15423   1.083  2.840  0.000
     6 C   0.07701  0.15423   1.083  2.840  0.000
     7 C   0.07701  0.15423   1.083  2.840  0.000
     8 C   0.07701  0.15423   1.083  2.840  0.000
     9 N  -0.05852 -0.29083   1.155  3.903  0.000
    10 N  -0.05358 -0.28858   1.149  3.904  0.000
    11 N  -0.05852 -0.29083   1.155  3.903  0.000
    12 N  -0.05852 -0.29083   1.155  3.903  0.000
    13 N  -0.05358 -0.28858   1.149  3.904  0.000
    14 N  -0.05852 -0.29083   1.155  3.903  0.000
    15 N  -0.05358 -0.28858   1.149  3.904  0.000
    16 N  -0.05358 -0.28858   1.149  3.904  0.000
    17 N  -0.05826 -0.29166   1.151  3.908  0.000
    18 N  -0.06034 -0.29115   1.167  3.893  0.000
    19 N  -0.05826 -0.29166   1.151  3.908  0.000
    20 N  -0.05826 -0.29166   1.151  3.908  0.000
    21 N  -0.06034 -0.29115   1.167  3.893  0.000
    22 N  -0.05826 -0.29166   1.151  3.908  0.000
    23 N  -0.06034 -0.29115   1.167  3.893  0.000
    24 N  -0.06034 -0.29115   1.167  3.893  0.000
    25 C   0.16007  0.32497   1.079  2.761  0.000
    26 C   0.16322  0.32774   1.078  2.758  0.000
    27 C   0.16007  0.32497   1.079  2.761  0.000
    28 C   0.16007  0.32497   1.079  2.761  0.000
    29 C   0.16322  0.32774   1.078  2.758  0.000
    30 C   0.16007  0.32497   1.079  2.761  0.000
    31 C   0.16322  0.32774   1.078  2.758  0.000
    32 C   0.16322  0.32774   1.078  2.758  0.000
    33 O  -0.52455 -0.56462   1.747  4.777  0.000
    34 O  -0.52161 -0.56174   1.746  4.775  0.000
    35 O  -0.52455 -0.56462   1.747  4.777  0.000
    36 O  -0.52455 -0.56462   1.747  4.777  0.000
    37 O  -0.52161 -0.56174   1.746  4.775  0.000
    38 O  -0.52455 -0.56462   1.747  4.777  0.000
    39 O  -0.52161 -0.56174   1.746  4.775  0.000
    40 O  -0.52161 -0.56174   1.746  4.775  0.000
    41 C   0.02379  0.04346   1.082  2.894  0.000
    42 C   0.02341  0.04599   1.079  2.897  0.000
    43 C   0.02379  0.04346   1.082  2.894  0.000
    44 C   0.02379  0.04346   1.082  2.894  0.000
    45 C   0.02341  0.04599   1.079  2.897  0.000
    46 C   0.02379  0.04346   1.082  2.894  0.000
    47 C   0.02341  0.04599   1.079  2.897  0.000
    48 C   0.02341  0.04599   1.079  2.897  0.000
    49 H   0.10309  0.18063   0.897  0.000  0.000
    50 H   0.09985  0.17706   0.900  0.000  0.000
    51 H   0.10309  0.18063   0.897  0.000  0.000
    52 H   0.10309  0.18063   0.897  0.000  0.000
    53 H   0.09985  0.17706   0.900  0.000  0.000
    54 H   0.10309  0.18063   0.897  0.000  0.000
    55 H   0.09985  0.17706   0.900  0.000  0.000
    56 H   0.09985  0.17706   0.900  0.000  0.000
    57 H   0.05512  0.14211   0.945  0.000  0.000
    58 H   0.05192  0.13876   0.948  0.000  0.000
    59 H   0.05512  0.14211   0.945  0.000  0.000
    60 H   0.05512  0.14211   0.945  0.000  0.000
    61 H   0.05192  0.13876   0.948  0.000  0.000
    62 H   0.05512  0.14211   0.945  0.000  0.000
    63 H   0.05192  0.13876   0.948  0.000  0.000
    64 H   0.05192  0.13876   0.948  0.000  0.000
    65 H   0.09588  0.17499   0.904  0.000  0.000
    66 H   0.09588  0.17499   0.904  0.000  0.000
    67 H   0.09588  0.17499   0.904  0.000  0.000
    68 H   0.09588  0.17499   0.904  0.000  0.000
    69 H   0.09692  0.17578   0.903  0.000  0.000
    70 H   0.09692  0.17578   0.903  0.000  0.000
    71 H   0.09692  0.17578   0.903  0.000  0.000
    72 H   0.09692  0.17578   0.903  0.000  0.000
 
 Wiberg/Mayer (AO) data. WBOs > 0.1 written file <wbo>
 largest (>0.05) Wiberg bond orders for each atom
           total WBO             WBO to atom ...
     1  C   3.954    N   17 0.989    N   21 0.989    C    5 0.952    H   69 0.939
     2  C   3.954    N   22 0.989    N   18 0.989    C    6 0.952    H   70 0.939
     3  C   3.954    N   19 0.989    N   23 0.989    C    7 0.952    H   71 0.939
     4  C   3.954    N   20 0.989    N   24 0.989    C    8 0.952    H   72 0.939
     5  C   3.955    N   13 0.992    N    9 0.988    C    1 0.952    H   65 0.938
     6  C   3.955    N   10 0.992    N   14 0.988    C    2 0.952    H   66 0.938
     7  C   3.955    N   15 0.992    N   11 0.988    C    3 0.952    H   67 0.938
     8  C   3.955    N   16 0.992    N   12 0.988    C    4 0.952    H   68 0.938
     9  N   3.395    C   25 1.101    C    5 0.988    C   41 0.988    O   33 0.135    N   17 0.052
    10  N   3.403    C   26 1.105    C    6 0.992    C   42 0.991    O   34 0.138    N   18 0.050
    11  N   3.395    C   27 1.101    C    7 0.988    C   43 0.988    O   35 0.135    N   19 0.052
    12  N   3.395    C   28 1.101    C    8 0.988    C   44 0.988    O   36 0.135    N   20 0.052
    13  N   3.403    C   29 1.105    C    5 0.992    C   45 0.991    O   37 0.138    N   21 0.050
    14  N   3.395    C   30 1.101    C    6 0.988    C   46 0.988    O   38 0.135    N   22 0.052
    15  N   3.403    C   31 1.105    C    7 0.992    C   47 0.991    O   39 0.138    N   23 0.050
    16  N   3.403    C   32 1.105    C    8 0.992    C   48 0.991    O   40 0.138    N   24 0.050
    17  N   3.399    C   25 1.101    C   42 0.991    C    1 0.989    O   33 0.137    N    9 0.052
    18  N   3.379    C   26 1.088    C    2 0.989    C   43 0.987    O   34 0.133    N   10 0.050
    19  N   3.399    C   27 1.101    C   48 0.991    C    3 0.989    O   35 0.137    N   11 0.052
    20  N   3.399    C   28 1.101    C   45 0.991    C    4 0.989    O   36 0.137    N   12 0.052
    21  N   3.379    C   29 1.088    C    1 0.989    C   46 0.987    O   37 0.133    N   13 0.050
    22  N   3.399    C   30 1.101    C   47 0.991    C    2 0.989    O   38 0.137    N   14 0.052
    23  N   3.379    C   31 1.088    C    3 0.989    C   44 0.987    O   39 0.133    N   15 0.050
    24  N   3.379    C   32 1.088    C    4 0.989    C   41 0.987    O   40 0.133    N   16 0.050
    25  C   3.864    O   33 1.573    N    9 1.101    N   17 1.101
    26  C   3.861    O   34 1.578    N   10 1.105    N   18 1.088
    27  C   3.864    O   35 1.573    N   11 1.101    N   19 1.101
    28  C   3.864    O   36 1.573    N   12 1.101    N   20 1.101
    29  C   3.861    O   37 1.578    N   13 1.105    N   21 1.088
    30  C   3.864    O   38 1.573    N   14 1.101    N   22 1.101
    31  C   3.861    O   39 1.578    N   15 1.105    N   23 1.088
    32  C   3.861    O   40 1.578    N   16 1.105    N   24 1.088
    33  O   1.902    C   25 1.573    N   17 0.137    N    9 0.135
    34  O   1.906    C   26 1.578    N   10 0.138    N   18 0.133
    35  O   1.902    C   27 1.573    N   19 0.137    N   11 0.135
    36  O   1.902    C   28 1.573    N   20 0.137    N   12 0.135
    37  O   1.906    C   29 1.578    N   13 0.138    N   21 0.133
    38  O   1.902    C   30 1.573    N   22 0.137    N   14 0.135
    39  O   1.906    C   31 1.578    N   15 0.138    N   23 0.133
    40  O   1.906    C   32 1.578    N   16 0.138    N   24 0.133
    41  C   3.950    N    9 0.988    N   24 0.987    H   57 0.963    H   49 0.955
    42  C   3.954    N   17 0.991    N   10 0.991    H   58 0.963    H   50 0.955
    43  C   3.950    N   11 0.988    N   18 0.987    H   59 0.963    H   51 0.955
    44  C   3.950    N   12 0.988    N   23 0.987    H   60 0.963    H   52 0.955
    45  C   3.954    N   20 0.991    N   13 0.991    H   61 0.963    H   53 0.955
    46  C   3.950    N   14 0.988    N   21 0.987    H   62 0.963    H   54 0.955
    47  C   3.954    N   22 0.991    N   15 0.991    H   63 0.963    H   55 0.955
    48  C   3.954    N   19 0.991    N   16 0.991    H   64 0.963    H   56 0.955
    49  H   0.988    C   41 0.955
    50  H   0.989    C   42 0.955
    51  H   0.988    C   43 0.955
    52  H   0.988    C   44 0.955
    53  H   0.989    C   45 0.955
    54  H   0.988    C   46 0.955
    55  H   0.989    C   47 0.955
    56  H   0.989    C   48 0.955
    57  H   0.995    C   41 0.963
    58  H   0.996    C   42 0.963
    59  H   0.995    C   43 0.963
    60  H   0.995    C   44 0.963
    61  H   0.996    C   45 0.963
    62  H   0.995    C   46 0.963
    63  H   0.996    C   47 0.963
    64  H   0.996    C   48 0.963
    65  H   0.988    C    5 0.938
    66  H   0.988    C    6 0.938
    67  H   0.988    C    7 0.938
    68  H   0.988    C    8 0.938
    69  H   0.988    C    1 0.939
    70  H   0.988    C    2 0.939
    71  H   0.988    C    3 0.939
    72  H   0.988    C    4 0.939
 (R)spin-density population
 
 Mulliken population n(s)   n(p)   n(d)
     1 C   0.0006   0.000  0.001  0.000
     2 C   0.0006   0.000  0.001  0.000
     3 C   0.0006   0.000  0.001  0.000
     4 C   0.0006   0.000  0.001  0.000
     5 C   0.0005  -0.000  0.001  0.000
     6 C   0.0005  -0.000  0.001  0.000
     7 C   0.0005  -0.000  0.001  0.000
     8 C   0.0005  -0.000  0.001  0.000
     9 N   0.0098   0.002  0.008  0.000
    10 N   0.0109   0.002  0.009  0.000
    11 N   0.0098   0.002  0.008  0.000
    12 N   0.0098   0.002  0.008  0.000
    13 N   0.0109   0.002  0.009  0.000
    14 N   0.0098   0.002  0.008  0.000
    15 N   0.0109   0.002  0.009  0.000
    16 N   0.0109   0.002  0.009  0.000
    17 N   0.0102   0.001  0.009  0.000
    18 N   0.0098   0.002  0.007  0.000
    19 N   0.0102   0.001  0.009  0.000
    20 N   0.0102   0.001  0.009  0.000
    21 N   0.0098   0.002  0.007  0.000
    22 N   0.0102   0.001  0.009  0.000
    23 N   0.0098   0.002  0.007  0.000
    24 N   0.0098   0.002  0.007  0.000
    25 C   0.0663   0.000  0.066  0.000
    26 C   0.0676   0.000  0.068  0.000
    27 C   0.0663   0.000  0.066  0.000
    28 C   0.0663   0.000  0.066  0.000
    29 C   0.0676   0.000  0.068  0.000
    30 C   0.0663   0.000  0.066  0.000
    31 C   0.0676   0.000  0.068  0.000
    32 C   0.0676   0.000  0.068  0.000
    33 O   0.0318   0.000  0.032  0.000
    34 O   0.0327   0.000  0.033  0.000
    35 O   0.0318   0.000  0.032  0.000
    36 O   0.0318   0.000  0.032  0.000
    37 O   0.0327   0.000  0.033  0.000
    38 O   0.0318   0.000  0.032  0.000
    39 O   0.0327   0.000  0.033  0.000
    40 O   0.0327   0.000  0.033  0.000
    41 C   0.0032   0.001  0.002  0.000
    42 C   0.0018   0.000  0.001  0.000
    43 C   0.0032   0.001  0.002  0.000
    44 C   0.0032   0.001  0.002  0.000
    45 C   0.0018   0.000  0.001  0.000
    46 C   0.0032   0.001  0.002  0.000
    47 C   0.0018   0.000  0.001  0.000
    48 C   0.0018   0.000  0.001  0.000
    49 H   0.0002   0.000  0.000  0.000
    50 H   0.0004   0.000  0.000  0.000
    51 H   0.0002   0.000  0.000  0.000
    52 H   0.0002   0.000  0.000  0.000
    53 H   0.0004   0.000  0.000  0.000
    54 H   0.0002   0.000  0.000  0.000
    55 H   0.0004   0.000  0.000  0.000
    56 H   0.0004   0.000  0.000  0.000
    57 H   0.0005   0.000  0.000  0.000
    58 H   0.0005   0.001  0.000  0.000
    59 H   0.0005   0.000  0.000  0.000
    60 H   0.0005   0.000  0.000  0.000
    61 H   0.0005   0.001  0.000  0.000
    62 H   0.0005   0.000  0.000  0.000
    63 H   0.0005   0.001  0.000  0.000
    64 H   0.0005   0.001  0.000  0.000
    65 H   0.0017   0.002  0.000  0.000
    66 H   0.0017   0.002  0.000  0.000
    67 H   0.0017   0.002  0.000  0.000
    68 H   0.0017   0.002  0.000  0.000
    69 H   0.0015   0.002  0.000  0.000
    70 H   0.0015   0.002  0.000  0.000
    71 H   0.0015   0.002  0.000  0.000
    72 H   0.0015   0.002  0.000  0.000
 
molecular dipole:
                 x           y           z       tot (Debye)
 q only:        0.000       0.000      -0.000
   full:        0.000      -0.000      -0.000       0.000
molecular quadrupole (traceless):
                xx          xy          yy          xz          yz          zz
 q only:       84.175      -0.000      84.175       0.000      -0.000    -168.349
  q+dip:       84.119      -0.000      84.119       0.000      -0.000    -168.238
   full:       84.546      -0.000      84.546       0.000      -0.000    -169.092
 SCC converged in                      3  cycles
 
SCC energy    :    -148.7430660
rep           :       1.3952364
ES            :       0.3515644
AES           :      -0.0320389
disp          :      -0.1011822
XB            :       0.0000000
fix           :       0.0000000
gborn         :      -0.2690877
gsasa         :       0.0147603
ghb           :      -0.0079925
gshift        :       0.0020755
gsolv         :      -0.2602445     -163.31
Etot ala COSMO:    -147.4578550
total E       :    -147.4490118
atomizationE  :      19.9799376    12537.60
(atE without considerung molecular charge,
 total energy contains solvation terms)
H-L gap (eV)  :          0.0838
 
speedup  0.76
cpu  time for all    0.47 s
wall time for all    0.62 s
