 
        ______________________________________
       |                                      |
       |           ==================         |
       |                 x T B                |
       |           ==================         |
       |               S. Grimme              |
       |        Universitaet Bonn, MCTC       |
       |         2015-18, Version 5.0         |
       |      Sat Jan 20 11:00:33 CET 2018    |
       |______________________________________|
 
        This code comes without any warranty
        for non-commercial, academia use only.
        Cite GFN-xTB work as:
        S. Grimme, C. Bannwarth, P. Shushkov
        JCTC, 13 (2017) 1989-2009
        for GFN2:
        C. Bannwarth, S. Ehlert, S. Grimme
        to be published.
        sTDA-xTB:
        S. Grimme  &  C. Bannwarth, JCP 145 (2016) 054103
        in the mass-spec context additionally:
        V. Asgeirsson, C.Bauer, S. Grimme, Chem. Sci. 8 (2017) 4879
 
        with help from
        P. Shushkov, G. Brandenburg, S. Dohm, J. Pisarek,
        F. März, M. Checinski, S. Ehrlich, S. Spicher, 
        P. Pracht, E. Caldeweyher, S. Ehlert, and C. Bannwarth.
 
        usage        :
        xtb <coord_file> [options]
        where <coord_file> is a valid file of TM)
        (*coord, Bohr) or xmol (*xyz, Angstroem)
        format.

        options:
        -chrg <int>   : molecular charge
        -uhf  <int>   : # of unpaired electrons(=2*S)
        -nox          : skip second, extended part in sTDA-xTB
        -pop          : do population analysis
                      : (default for -nox)
        -mowr <real>  : cut MO write above (def.3 Eh)
        -molden       : write formatted molden file
        -parx <file>  : read parameters for sTDA-xTB
                        calc (def:~/.param_stda2.xtb)
        -parv <file>  : read parameters for vTB part in
                        sTDA-xTB (def: ~/.param_stda1.xtb)
        -xtemp <real> : el. temp for xTB (def. 0 K)
        -etemp <real> : el. temp for GFN (def. 300 K)
        -fod          : do a xTB calc. of the FOD
                        and write molden.input file 
                        with appropriate occupations
                        for plotting. Def. T=12500 K
 
        -gfn          : use GFN-xTB
        -grad         : GFN-xTB gradient
        -acc <real>   : GFN-xTB accuracy (def. 1.0)
        -opt [level]  : optimize at GFN-xTB
                      : level=crude,vloose,loose,
                      :       tight,vtight
        -hess         : compute Hessian at GFN-xTB
        -ohess        : optimize and compute Hessian
        -omd          : optimize and do MD
        -siman        : conformational search
        -screen       : opt. loop over ensemble
        -gmd          : annealed MD for GMD procedure
        -modef        : vib mode following
        -gbsa [string1] [string2]
                        use GBSA implicit solvent
                        for solvent [string1] and
                        solvation state [string2]=
                        reference, bar1M (default=1M)
        additional GFN/opt/MD/siman options read from
        $XTBHOME/.xtbrc or $set in coordinate file
 
       spin and charge state information can be on:
       <.CHRG> (charge) and <.UHF> (=nalpha-nbeta)
       -uhf and -chrg override the file info.
       useful machine settings:
       setenv MKL_NUM_THREADS <NCORE_ON_YOUR_MACHINE>
       setenv OMP_STACKSIZE 500m
       limit stacksize unlimited
 
       total energies in Eh, gaps/HL energies in eV
       please read REVISION and HOWTO files carefully
 =============================
  # OMP threads =                     1
 =============================
 
 xtbhome directory:/Applications/xtb/
 
 argument                      1 :-gmd
 
 number of atoms            :    73
 number of electrons        :   256
 charge                     :  0
 spin                       : 0.0
 first test random number   :  0.0974
 
 
KAB for pair M(3d)-M(3d) :  1.1000
KAB for pair M(4d)-M(4d) :  1.2000
KAB for pair M(5d)-M(5d) :  1.2000
 -----------------------------------------
  G F N (Geometry, Frequency, Non-covalent)
        parametrization, version                     2
 /Applications/xtb/.param_gfn2.xtb
 -----------------------------------------
      method parameters     
 k(s)        :  1.8500
 k(p)        :  2.2500
 k(d)        :  2.0000
 k(f)        :  0.0000
 alphaj      :  1.0000
 kEN (H0ij)  : -2.3620
 D3 a1       :  0.6900
 D3 a2       :  4.0530
 D3 s8       :  2.0000
 D3atm       :  1.0000
 AESdamp     :  5.5000
 AESrad      :  1.9230
 expscalexp  : -0.2500
 
     -------------------------
     ! NO SOLVENT MODEL USED !
     -------------------------
 
 doing EN charges ...
 sum q :  0.4440892D-15
 point charge moment (au)
     X       Y       Z   
   0.0000   0.0000   0.0000  total (Debye):    0.000
 
            Z      q(EN)   CN      Cart. coordinates
     1  C   4.0    0.21    4.39    -5.98836    -3.04029    -0.00000
     2  C   4.0    0.21    4.39     3.04030    -5.98839    -0.00000
     3  C   4.0    0.21    4.39     5.98837     3.04029    -0.00000
     4  C   4.0    0.21    4.39    -3.04030     5.98840     0.00000
     5  C   4.0    0.21    4.39    -6.71303    -0.19902    -0.00000
     6  C   4.0    0.21    4.39     0.19903    -6.71305    -0.00000
     7  C   4.0    0.21    4.39     6.71304     0.19902    -0.00000
     8  C   4.0    0.21    4.39    -0.19904     6.71305     0.00000
     9  N   5.0   -0.21    3.38    -5.61935     0.72608    -2.30543
    10  N   5.0   -0.21    3.38    -0.72607    -5.61937    -2.30543
    11  N   5.0   -0.21    3.38     5.61935    -0.72609    -2.30542
    12  N   5.0   -0.21    3.38     0.72607     5.61937     2.30543
    13  N   5.0   -0.21    3.38    -5.61935     0.72608     2.30543
    14  N   5.0   -0.21    3.38    -0.72607    -5.61937     2.30543
    15  N   5.0   -0.21    3.38     5.61935    -0.72609     2.30542
    16  N   5.0   -0.21    3.38     0.72607     5.61937    -2.30543
    17  N   5.0   -0.21    3.38    -4.58519    -3.32858    -2.30541
    18  N   5.0   -0.21    3.38     3.32859    -4.58523    -2.30542
    19  N   5.0   -0.21    3.38     4.58519     3.32858    -2.30540
    20  N   5.0   -0.21    3.38    -3.32860     4.58523     2.30541
    21  N   5.0   -0.21    3.38    -4.58519    -3.32858     2.30541
    22  N   5.0   -0.21    3.38     3.32859    -4.58523     2.30542
    23  N   5.0   -0.21    3.38     4.58519     3.32858     2.30540
    24  N   5.0   -0.21    3.38    -3.32860     4.58523    -2.30541
    25  C   4.0    0.48    3.44    -4.64912    -1.18567    -3.78605
    26  C   4.0    0.48    3.44     1.18569    -4.64915    -3.78607
    27  C   4.0    0.48    3.44     4.64911     1.18567    -3.78603
    28  C   4.0    0.48    3.44    -1.18569     4.64914     3.78605
    29  C   4.0    0.48    3.44    -4.64912    -1.18567     3.78605
    30  C   4.0    0.48    3.44     1.18569    -4.64915     3.78607
    31  C   4.0    0.48    3.44     4.64911     1.18567     3.78603
    32  C   4.0    0.48    3.44    -1.18569     4.64914    -3.78605
    33  O   6.0   -0.38    1.08    -4.03115    -1.02806    -5.95281
    34  O   6.0   -0.38    1.08     1.02809    -4.03120    -5.95284
    35  O   6.0   -0.38    1.08     4.03112     1.02806    -5.95278
    36  O   6.0   -0.38    1.08    -1.02809     4.03118     5.95281
    37  O   6.0   -0.38    1.08    -4.03115    -1.02806     5.95281
    38  O   6.0   -0.38    1.08     1.02809    -4.03120     5.95284
    39  O   6.0   -0.38    1.08     4.03112     1.02806     5.95278
    40  O   6.0   -0.38    1.08    -1.02809     4.03118    -5.95281
    41  C   4.0    0.25    4.17    -5.57608     3.30986    -3.13815
    42  C   4.0    0.25    4.17    -3.30985    -5.57607    -3.13816
    43  C   4.0    0.25    4.17     5.57608    -3.30986    -3.13815
    44  C   4.0    0.25    4.17     3.30985     5.57608     3.13815
    45  C   4.0    0.25    4.17    -5.57608     3.30986     3.13815
    46  C   4.0    0.25    4.17    -3.30985    -5.57607     3.13816
    47  C   4.0    0.25    4.17     5.57608    -3.30986     3.13815
    48  C   4.0    0.25    4.17     3.30985     5.57608    -3.13815
    49  H   1.0   -0.05    1.00    -7.26983     4.31525    -2.49577
    50  H   1.0   -0.05    1.00    -4.31526    -7.26981    -2.49577
    51  H   1.0   -0.05    1.00     7.26983    -4.31526    -2.49577
    52  H   1.0   -0.05    1.00     4.31526     7.26982     2.49577
    53  H   1.0   -0.05    1.00    -7.26983     4.31525     2.49577
    54  H   1.0   -0.05    1.00    -4.31526    -7.26981     2.49577
    55  H   1.0   -0.05    1.00     7.26983    -4.31526     2.49577
    56  H   1.0   -0.05    1.00     4.31526     7.26982    -2.49577
    57  H   1.0   -0.05    1.01    -5.46804     3.24573    -5.21085
    58  H   1.0   -0.05    1.01    -3.24572    -5.46804    -5.21085
    59  H   1.0   -0.05    1.01     5.46804    -3.24573    -5.21085
    60  H   1.0   -0.05    1.01     3.24572     5.46803     5.21085
    61  H   1.0   -0.05    1.01    -5.46804     3.24573     5.21085
    62  H   1.0   -0.05    1.01    -3.24572    -5.46804     5.21085
    63  H   1.0   -0.05    1.01     5.46804    -3.24573     5.21085
    64  H   1.0   -0.05    1.01     3.24572     5.46803    -5.21085
    65  H   1.0   -0.05    1.00    -8.78140     0.12256    -0.00000
    66  H   1.0   -0.05    1.00    -0.12255    -8.78142     0.00000
    67  H   1.0   -0.05    1.00     8.78142    -0.12256     0.00000
    68  H   1.0   -0.05    1.00     0.12255     8.78143     0.00000
    69  H   1.0   -0.05    1.00    -7.65004    -4.31323     0.00000
    70  H   1.0   -0.05    1.00     4.31324    -7.65009    -0.00000
    71  H   1.0   -0.05    1.00     7.65006     4.31324    -0.00000
    72  H   1.0   -0.05    1.00    -4.31324     7.65009     0.00000
    73  RN  8.0    0.20    3.86     0.00003     0.00006     0.00000
 
  Z AO/shell   Hii/eV     exponent
  1     Sat Jan 20 17:55:17 CET 2018    EN: 2.200 GAM: 0.531  GM3:-0.4370
     1s    -10.248275    1.266496
  6     Sat Jan 20 17:55:17 CET 2018    EN: 2.550 GAM: 0.417  GM3:-0.0654
     2s    -15.292509    2.030071
     2p    -10.408465    1.801676
  7     Sat Jan 20 17:55:17 CET 2018    EN: 3.040 GAM: 0.444  GM3:-0.1301
     2s    -16.687725    2.226550
     2p    -13.175143    1.981921
  8     Sat Jan 20 17:55:17 CET 2018    EN: 3.440 GAM: 0.468  GM3: 0.0937
     2s    -20.924998    2.442614
     2p    -15.243501    2.233841
 86     Sun Jan 21 16:39:38 CET 2018    EN: 2.200 GAM: 0.334  GM3:-0.0373
     6s    -18.000000    2.941358
     6p    -10.659871    2.613828
     5d     -0.786532    1.547573
 no old-style atom pair restraing (fixing) potential
 
 molecular fragmentation (1/2 indicates fragments):
1111111111111111111111111111111111111111111111111111111111111111111111112
# atoms in fragment 1/2:    72     1
 fragment masses (1/2) :      664.56      222.00
CMA distance (Bohr)    :   0.000
constraining FC (au)   :  0.0500
 
             =======================================
             |                                     |
             |        S C C  calculation           |
             |                                     |
             =======================================
 #proc     :                      1
 Ncao      :                    226
 Nao       :                    225
 Nel       :                    256
 T(el)     :   300.0
 intcut    :    25.0
 scfconv   :  0.100E-05
   qconv   :  0.200E-04
 intneglect:  0.100E-07
 broydamp  :      0.400
 Nshell    :                    123
  q data taken from xtbrestart
  CAMM data taken from xtbrestart
 iter      E             dE          RMSdq      gap      omega  full diag
   1   -152.2333514 -0.152233E+03  0.115E-06    5.20       0.0  T
   2   -152.2333514 -0.113687E-12  0.753E-07    5.20   15535.0  T
   3   -152.2333514  0.284217E-12  0.527E-07    5.20   22188.1  T
speedup  4.35
cpu  time for SCC    0.68 s
wall time for SCC    0.16 s

          eigenvalues
 #    :         116        117        118        119        120        121        122        123
 occ. :        2.000      2.000      2.000      2.000      2.000      2.000      2.000      2.000
 eps  :       -10.355    -10.324    -10.313    -10.214    -10.189    -10.189    -10.182    -10.137
 #    :         124        125        126        127        128        129        130        131
 occ. :        2.000      2.000      2.000      2.000      2.000      0.000      0.000      0.000
 eps  :       -10.137    -10.042    -10.001    -10.001     -9.962     -4.761     -4.577     -4.523
 #    :         132        133        134        135        136        137        138        139
 occ. :        0.000      0.000      0.000      0.000      0.000      0.000      0.000      0.000
 eps  :        -4.523     -4.429     -4.429     -4.376     -4.210     -0.045      0.124      0.142
 
 
 Mulliken/CM5 charges        n(s)   n(p)   n(d)
     1 C   0.06610  0.14669   1.078  2.855  0.000
     2 C   0.06610  0.14669   1.078  2.855  0.000
     3 C   0.06610  0.14669   1.078  2.855  0.000
     4 C   0.06610  0.14669   1.078  2.855  0.000
     5 C   0.06610  0.14669   1.078  2.855  0.000
     6 C   0.06610  0.14669   1.078  2.855  0.000
     7 C   0.06610  0.14669   1.078  2.855  0.000
     8 C   0.06610  0.14669   1.078  2.855  0.000
     9 N  -0.03707 -0.28288   1.129  3.908  0.000
    10 N  -0.03707 -0.28288   1.129  3.908  0.000
    11 N  -0.03707 -0.28288   1.129  3.908  0.000
    12 N  -0.03707 -0.28288   1.129  3.908  0.000
    13 N  -0.03707 -0.28288   1.129  3.908  0.000
    14 N  -0.03707 -0.28288   1.129  3.908  0.000
    15 N  -0.03707 -0.28288   1.129  3.908  0.000
    16 N  -0.03707 -0.28288   1.129  3.908  0.000
    17 N  -0.03707 -0.28288   1.129  3.908  0.000
    18 N  -0.03707 -0.28288   1.129  3.908  0.000
    19 N  -0.03707 -0.28288   1.129  3.908  0.000
    20 N  -0.03707 -0.28288   1.129  3.908  0.000
    21 N  -0.03707 -0.28288   1.129  3.908  0.000
    22 N  -0.03707 -0.28288   1.129  3.908  0.000
    23 N  -0.03707 -0.28288   1.129  3.908  0.000
    24 N  -0.03707 -0.28288   1.129  3.908  0.000
    25 C   0.23264  0.40360   1.055  2.713  0.000
    26 C   0.23264  0.40359   1.055  2.713  0.000
    27 C   0.23264  0.40360   1.055  2.713  0.000
    28 C   0.23264  0.40360   1.055  2.713  0.000
    29 C   0.23264  0.40360   1.055  2.713  0.000
    30 C   0.23264  0.40359   1.055  2.713  0.000
    31 C   0.23264  0.40360   1.055  2.713  0.000
    32 C   0.23264  0.40360   1.055  2.713  0.000
    33 O  -0.39896 -0.44194   1.725  4.674  0.000
    34 O  -0.39896 -0.44194   1.725  4.674  0.000
    35 O  -0.39896 -0.44194   1.725  4.674  0.000
    36 O  -0.39896 -0.44194   1.725  4.674  0.000
    37 O  -0.39896 -0.44194   1.725  4.674  0.000
    38 O  -0.39896 -0.44194   1.725  4.674  0.000
    39 O  -0.39896 -0.44194   1.725  4.674  0.000
    40 O  -0.39896 -0.44194   1.725  4.674  0.000
    41 C   0.03133  0.05707   1.072  2.897  0.000
    42 C   0.03133  0.05707   1.072  2.897  0.000
    43 C   0.03133  0.05707   1.072  2.897  0.000
    44 C   0.03133  0.05707   1.072  2.897  0.000
    45 C   0.03133  0.05707   1.072  2.897  0.000
    46 C   0.03133  0.05707   1.072  2.897  0.000
    47 C   0.03133  0.05707   1.072  2.897  0.000
    48 C   0.03133  0.05707   1.072  2.897  0.000
    49 H   0.03509  0.11144   0.965  0.000  0.000
    50 H   0.03509  0.11144   0.965  0.000  0.000
    51 H   0.03509  0.11144   0.965  0.000  0.000
    52 H   0.03509  0.11144   0.965  0.000  0.000
    53 H   0.03509  0.11144   0.965  0.000  0.000
    54 H   0.03509  0.11144   0.965  0.000  0.000
    55 H   0.03509  0.11144   0.965  0.000  0.000
    56 H   0.03509  0.11144   0.965  0.000  0.000
    57 H   0.07417  0.16280   0.926  0.000  0.000
    58 H   0.07417  0.16280   0.926  0.000  0.000
    59 H   0.07417  0.16279   0.926  0.000  0.000
    60 H   0.07417  0.16279   0.926  0.000  0.000
    61 H   0.07417  0.16280   0.926  0.000  0.000
    62 H   0.07417  0.16280   0.926  0.000  0.000
    63 H   0.07417  0.16279   0.926  0.000  0.000
    64 H   0.07417  0.16279   0.926  0.000  0.000
    65 H   0.02489  0.10278   0.975  0.000  0.000
    66 H   0.02489  0.10278   0.975  0.000  0.000
    67 H   0.02489  0.10278   0.975  0.000  0.000
    68 H   0.02489  0.10278   0.975  0.000  0.000
    69 H   0.02489  0.10278   0.975  0.000  0.000
    70 H   0.02489  0.10278   0.975  0.000  0.000
    71 H   0.02489  0.10278   0.975  0.000  0.000
    72 H   0.02489  0.10278   0.975  0.000  0.000
    73 RN  0.07105  0.18661   2.000  5.980 -0.051
 
 Wiberg/Mayer (AO) data. WBOs > 0.1 written file <wbo>
 largest (>0.05) Wiberg bond orders for each atom
           total WBO             WBO to atom ...
     1  C   3.978    N   17 0.997    N   21 0.997    C    5 0.959    H   69 0.948
     2  C   3.978    N   22 0.997    N   18 0.997    C    6 0.959    H   70 0.948
     3  C   3.978    N   23 0.997    N   19 0.997    C    7 0.959    H   71 0.948
     4  C   3.978    N   20 0.997    N   24 0.997    C    8 0.959    H   72 0.948
     5  C   3.978    N    9 0.997    N   13 0.997    C    1 0.959    H   65 0.948
     6  C   3.978    N   10 0.997    N   14 0.997    C    2 0.959    H   66 0.948
     7  C   3.978    N   11 0.997    N   15 0.997    C    3 0.959    H   67 0.948
     8  C   3.978    N   16 0.997    N   12 0.997    C    4 0.959    H   68 0.948
     9  N   3.420    C   25 1.101    C   41 0.999    C    5 0.997    O   33 0.148
    10  N   3.420    C   26 1.101    C   42 0.999    C    6 0.997    O   34 0.148
    11  N   3.420    C   27 1.101    C   43 0.999    C    7 0.997    O   35 0.148
    12  N   3.420    C   28 1.101    C   44 0.999    C    8 0.997    O   36 0.148
    13  N   3.420    C   29 1.101    C   45 0.999    C    5 0.997    O   37 0.148
    14  N   3.420    C   30 1.101    C   46 0.999    C    6 0.997    O   38 0.148
    15  N   3.420    C   31 1.101    C   47 0.999    C    7 0.997    O   39 0.148
    16  N   3.420    C   32 1.101    C   48 0.999    C    8 0.997    O   40 0.148
    17  N   3.420    C   25 1.101    C   42 0.999    C    1 0.997    O   33 0.148
    18  N   3.420    C   26 1.101    C   43 0.999    C    2 0.997    O   34 0.148
    19  N   3.420    C   27 1.101    C   48 0.999    C    3 0.997    O   35 0.148
    20  N   3.420    C   28 1.101    C   45 0.999    C    4 0.997    O   36 0.148
    21  N   3.420    C   29 1.101    C   46 0.999    C    1 0.997    O   37 0.148
    22  N   3.420    C   30 1.101    C   47 0.999    C    2 0.997    O   38 0.148
    23  N   3.420    C   31 1.101    C   44 0.999    C    3 0.997    O   39 0.148
    24  N   3.420    C   32 1.101    C   41 0.999    C    4 0.997    O   40 0.148
    25  C   3.966    O   33 1.705    N   17 1.101    N    9 1.101
    26  C   3.966    O   34 1.705    N   10 1.101    N   18 1.101
    27  C   3.966    O   35 1.705    N   19 1.101    N   11 1.101
    28  C   3.966    O   36 1.705    N   20 1.101    N   12 1.101
    29  C   3.966    O   37 1.705    N   21 1.101    N   13 1.101
    30  C   3.966    O   38 1.705    N   14 1.101    N   22 1.101
    31  C   3.966    O   39 1.705    N   23 1.101    N   15 1.101
    32  C   3.966    O   40 1.705    N   24 1.101    N   16 1.101
    33  O   2.062    C   25 1.705    N   17 0.148    N    9 0.148
    34  O   2.062    C   26 1.705    N   10 0.148    N   18 0.148
    35  O   2.062    C   27 1.705    N   11 0.148    N   19 0.148
    36  O   2.062    C   28 1.705    N   20 0.148    N   12 0.148
    37  O   2.062    C   29 1.705    N   21 0.148    N   13 0.148
    38  O   2.062    C   30 1.705    N   14 0.148    N   22 0.148
    39  O   2.062    C   31 1.705    N   15 0.148    N   23 0.148
    40  O   2.062    C   32 1.705    N   24 0.148    N   16 0.148
    41  C   3.969    N    9 0.999    N   24 0.999    H   49 0.964    H   57 0.957
    42  C   3.969    N   17 0.999    N   10 0.999    H   50 0.964    H   58 0.957
    43  C   3.969    N   18 0.999    N   11 0.999    H   51 0.964    H   59 0.957
    44  C   3.969    N   12 0.999    N   23 0.999    H   52 0.964    H   60 0.957
    45  C   3.969    N   13 0.999    N   20 0.999    H   53 0.964    H   61 0.957
    46  C   3.969    N   21 0.999    N   14 0.999    H   54 0.964    H   62 0.957
    47  C   3.969    N   22 0.999    N   15 0.999    H   55 0.964    H   63 0.957
    48  C   3.969    N   16 0.999    N   19 0.999    H   56 0.964    H   64 0.957
    49  H   0.998    C   41 0.964
    50  H   0.998    C   42 0.964
    51  H   0.998    C   43 0.964
    52  H   0.998    C   44 0.964
    53  H   0.998    C   45 0.964
    54  H   0.998    C   46 0.964
    55  H   0.998    C   47 0.964
    56  H   0.998    C   48 0.964
    57  H   0.994    C   41 0.957
    58  H   0.994    C   42 0.957
    59  H   0.994    C   43 0.957
    60  H   0.994    C   44 0.957
    61  H   0.994    C   45 0.957
    62  H   0.994    C   46 0.957
    63  H   0.994    C   47 0.957
    64  H   0.994    C   48 0.957
    65  H   0.999    C    5 0.948
    66  H   0.999    C    6 0.948
    67  H   0.999    C    7 0.948
    68  H   0.999    C    8 0.948
    69  H   0.999    C    1 0.948
    70  H   0.999    C    2 0.948
    71  H   0.999    C    3 0.948
    72  H   0.999    C    4 0.948
    73  RN -0.064
 density
 
 cube file module (SG, 7/16)
 cube_pthr     :   0.005
 cube_step     :   0.400
 non-zero P (%):  34.275   nmat:    8792
 Grid Boundaries (x y z) :
   11.7814186153213        11.7814325394109        8.95283690717581     
  -11.7814026584724       -11.7814225789052       -8.95283692446669     
 Total # of points                156645
 writing density.cub
 N    (numint) : ******
cpu  time for cube   50.55 s
wall time for cube   48.56 s
 
molecular dipole:
                 x           y           z       tot (Debye)
 q only:       -0.000      -0.000      -0.000
   full:        0.000       0.000      -0.000       0.000
molecular quadrupole (traceless):
                xx          xy          yy          xz          yz          zz
 q only:       50.216       0.000      50.215      -0.000      -0.000    -100.431
  q+dip:       62.226       0.000      62.225      -0.000      -0.000    -124.451
   full:       63.665       0.000      63.664      -0.000      -0.000    -127.329
 SCC converged in                      3  cycles
 
SCC energy    :    -152.2333514
rep           :       1.5054014
ES            :      -0.0005053
AES           :       0.0148928
disp          :      -0.1188267
XB            :       0.0000000
fix           :       0.0000000
total E       :    -150.8467767
atomizationE  :      19.7042700    12364.62
(atE without considerung molecular charge,
 total energy contains solvation terms)
H-L gap (eV)  :          5.2014
 
       ===================================
       |          GMD driver             |
       ===================================
 
 
 MD time /ps        :    0.00
 dt /fs             :    4.00
 SCC accuracy       :    1.00
 temperature /K     :  298.15
 max steps          : 12500
 block length (av.) :   875
 dumpstep(trj) /fs  :   50.00    12
 dumpstep(coords)/fs: 1000.00   250
 minimum runtime(ps):   5.0
 maximum runtime(ps):  50.0
 H atoms mass (amu) :     4
