 
        ______________________________________
       |                                      |
       |           ==================         |
       |                 x T B                |
       |           ==================         |
       |               S. Grimme              |
       |        Universitaet Bonn, MCTC       |
       |         2015-18, Version 5.0         |
       |      Sat Jan 20 11:00:33 CET 2018    |
       |______________________________________|
 
        This code comes without any warranty
        for non-commercial, academia use only.
        Cite GFN-xTB work as:
        S. Grimme, C. Bannwarth, P. Shushkov
        JCTC, 13 (2017) 1989-2009
        for GFN2:
        C. Bannwarth, S. Ehlert, S. Grimme
        to be published.
        sTDA-xTB:
        S. Grimme  &  C. Bannwarth, JCP 145 (2016) 054103
        in the mass-spec context additionally:
        V. Asgeirsson, C.Bauer, S. Grimme, Chem. Sci. 8 (2017) 4879
 
        with help from
        P. Shushkov, G. Brandenburg, S. Dohm, J. Pisarek,
        F. März, M. Checinski, S. Ehrlich, S. Spicher, 
        P. Pracht, E. Caldeweyher, S. Ehlert, and C. Bannwarth.
 
        usage        :
        xtb <coord_file> [options]
        where <coord_file> is a valid file of TM)
        (*coord, Bohr) or xmol (*xyz, Angstroem)
        format.

        options:
        -chrg <int>   : molecular charge
        -uhf  <int>   : # of unpaired electrons(=2*S)
        -nox          : skip second, extended part in sTDA-xTB
        -pop          : do population analysis
                      : (default for -nox)
        -mowr <real>  : cut MO write above (def.3 Eh)
        -molden       : write formatted molden file
        -parx <file>  : read parameters for sTDA-xTB
                        calc (def:~/.param_stda2.xtb)
        -parv <file>  : read parameters for vTB part in
                        sTDA-xTB (def: ~/.param_stda1.xtb)
        -xtemp <real> : el. temp for xTB (def. 0 K)
        -etemp <real> : el. temp for GFN (def. 300 K)
        -fod          : do a xTB calc. of the FOD
                        and write molden.input file 
                        with appropriate occupations
                        for plotting. Def. T=12500 K
 
        -gfn          : use GFN-xTB
        -grad         : GFN-xTB gradient
        -acc <real>   : GFN-xTB accuracy (def. 1.0)
        -opt [level]  : optimize at GFN-xTB
                      : level=crude,vloose,loose,
                      :       tight,vtight
        -hess         : compute Hessian at GFN-xTB
        -ohess        : optimize and compute Hessian
        -omd          : optimize and do MD
        -siman        : conformational search
        -screen       : opt. loop over ensemble
        -gmd          : annealed MD for GMD procedure
        -modef        : vib mode following
        -gbsa [string1] [string2]
                        use GBSA implicit solvent
                        for solvent [string1] and
                        solvation state [string2]=
                        reference, bar1M (default=1M)
        additional GFN/opt/MD/siman options read from
        $XTBHOME/.xtbrc or $set in coordinate file
 
       spin and charge state information can be on:
       <.CHRG> (charge) and <.UHF> (=nalpha-nbeta)
       -uhf and -chrg override the file info.
       useful machine settings:
       setenv MKL_NUM_THREADS <NCORE_ON_YOUR_MACHINE>
       setenv OMP_STACKSIZE 500m
       limit stacksize unlimited
 
       total energies in Eh, gaps/HL energies in eV
       please read REVISION and HOWTO files carefully
 =============================
  # OMP threads =                     1
 =============================
 
 xtbhome directory:/Applications/xtb/
 
 argument                      1 :-opt
 argument                      2 :tight
 
 number of atoms            :    73
 number of electrons        :   256
 charge                     :  0
 spin                       : 0.0
 first test random number   :  0.0157
 
 
KAB for pair M(3d)-M(3d) :  1.1000
KAB for pair M(4d)-M(4d) :  1.2000
KAB for pair M(5d)-M(5d) :  1.2000
 -----------------------------------------
  G F N (Geometry, Frequency, Non-covalent)
        parametrization, version                     2
 /Applications/xtb/.param_gfn2.xtb
 -----------------------------------------
      method parameters     
 k(s)        :  1.8500
 k(p)        :  2.2500
 k(d)        :  2.0000
 k(f)        :  0.0000
 alphaj      :  1.0000
 kEN (H0ij)  : -2.3620
 D3 a1       :  0.6900
 D3 a2       :  4.0530
 D3 s8       :  2.0000
 D3atm       :  1.0000
 AESdamp     :  5.5000
 AESrad      :  1.9230
 expscalexp  : -0.2500
 
     -------------------------
     ! NO SOLVENT MODEL USED !
     -------------------------
 
 doing EN charges ...
 sum q :  0.4440892D-15
 point charge moment (au)
     X       Y       Z   
   0.0000   0.0000  -0.0000  total (Debye):    0.000
 
            Z      q(EN)   CN      Cart. coordinates
     1  C   4.0    0.21    4.32    -6.09422    -3.09917     0.00000
     2  C   4.0    0.21    4.32     3.09917    -6.09422     0.00000
     3  C   4.0    0.21    4.32     6.09422     3.09917     0.00000
     4  C   4.0    0.21    4.32    -3.09917     6.09422     0.00000
     5  C   4.0    0.21    4.32    -6.83261    -0.19710     0.00000
     6  C   4.0    0.21    4.32     0.19710    -6.83261     0.00000
     7  C   4.0    0.21    4.32     6.83261     0.19710     0.00000
     8  C   4.0    0.21    4.32    -0.19710     6.83261     0.00000
     9  N   5.0   -0.20    3.29    -5.78863     0.72367    -2.35957
    10  N   5.0   -0.20    3.29    -0.72367    -5.78863    -2.35957
    11  N   5.0   -0.20    3.29     5.78863    -0.72367    -2.35957
    12  N   5.0   -0.20    3.29     0.72367     5.78863     2.35957
    13  N   5.0   -0.20    3.29    -5.78863     0.72367     2.35957
    14  N   5.0   -0.20    3.29    -0.72367    -5.78863     2.35957
    15  N   5.0   -0.20    3.29     5.78863    -0.72367     2.35957
    16  N   5.0   -0.20    3.29     0.72367     5.78863    -2.35957
    17  N   5.0   -0.20    3.29    -4.73805    -3.40918    -2.35997
    18  N   5.0   -0.20    3.29     3.40918    -4.73805    -2.35997
    19  N   5.0   -0.20    3.29     4.73805     3.40918    -2.35997
    20  N   5.0   -0.20    3.29    -3.40918     4.73805     2.35997
    21  N   5.0   -0.20    3.29    -4.73805    -3.40918     2.35997
    22  N   5.0   -0.20    3.29     3.40918    -4.73805     2.35997
    23  N   5.0   -0.20    3.29     4.73805     3.40918     2.35997
    24  N   5.0   -0.20    3.29    -3.40918     4.73805    -2.35997
    25  C   4.0    0.44    3.36    -4.78029    -1.21978    -3.84482
    26  C   4.0    0.44    3.36     1.21978    -4.78029    -3.84482
    27  C   4.0    0.44    3.36     4.78029     1.21978    -3.84482
    28  C   4.0    0.44    3.36    -1.21978     4.78029     3.84482
    29  C   4.0    0.44    3.36    -4.78029    -1.21978     3.84482
    30  C   4.0    0.44    3.36     1.21978    -4.78029     3.84482
    31  C   4.0    0.44    3.36     4.78029     1.21978     3.84482
    32  C   4.0    0.44    3.36    -1.21978     4.78029    -3.84482
    33  O   6.0   -0.35    1.07    -4.10294    -1.04725    -6.01759
    34  O   6.0   -0.35    1.07     1.04725    -4.10294    -6.01759
    35  O   6.0   -0.35    1.07     4.10294     1.04725    -6.01759
    36  O   6.0   -0.35    1.07    -1.04725     4.10294     6.01759
    37  O   6.0   -0.35    1.07    -4.10294    -1.04725     6.01759
    38  O   6.0   -0.35    1.07     1.04725    -4.10294     6.01759
    39  O   6.0   -0.35    1.07     4.10294     1.04725     6.01759
    40  O   6.0   -0.35    1.07    -1.04725     4.10294    -6.01759
    41  C   4.0    0.24    4.14    -5.64603     3.35118    -3.16353
    42  C   4.0    0.24    4.14    -3.35118    -5.64603    -3.16353
    43  C   4.0    0.24    4.14     5.64603    -3.35118    -3.16353
    44  C   4.0    0.24    4.14     3.35118     5.64603     3.16353
    45  C   4.0    0.24    4.14    -5.64603     3.35118     3.16353
    46  C   4.0    0.24    4.14    -3.35118    -5.64603     3.16353
    47  C   4.0    0.24    4.14     5.64603    -3.35118     3.16353
    48  C   4.0    0.24    4.14     3.35118     5.64603    -3.16353
    49  H   1.0   -0.05    1.00    -7.33253     4.35125    -2.49691
    50  H   1.0   -0.05    1.00    -4.35125    -7.33253    -2.49691
    51  H   1.0   -0.05    1.00     7.33253    -4.35125    -2.49691
    52  H   1.0   -0.05    1.00     4.35125     7.33253     2.49691
    53  H   1.0   -0.05    1.00    -7.33253     4.35125     2.49691
    54  H   1.0   -0.05    1.00    -4.35125    -7.33253     2.49691
    55  H   1.0   -0.05    1.00     7.33253    -4.35125     2.49691
    56  H   1.0   -0.05    1.00     4.35125     7.33253    -2.49691
    57  H   1.0   -0.05    1.01    -5.60950     3.32836    -5.22853
    58  H   1.0   -0.05    1.01    -3.32836    -5.60950    -5.22853
    59  H   1.0   -0.05    1.01     5.60950    -3.32836    -5.22853
    60  H   1.0   -0.05    1.01     3.32836     5.60950     5.22853
    61  H   1.0   -0.05    1.01    -5.60950     3.32836     5.22853
    62  H   1.0   -0.05    1.01    -3.32836    -5.60950     5.22853
    63  H   1.0   -0.05    1.01     5.60950    -3.32836     5.22853
    64  H   1.0   -0.05    1.01     3.32836     5.60950    -5.22853
    65  H   1.0   -0.06    1.00    -8.89296     0.08107     0.00000
    66  H   1.0   -0.06    1.00    -0.08107    -8.89296     0.00000
    67  H   1.0   -0.06    1.00     8.89296    -0.08107     0.00000
    68  H   1.0   -0.06    1.00     0.08107     8.89296     0.00000
    69  H   1.0   -0.06    1.00    -7.77171    -4.32768     0.00000
    70  H   1.0   -0.06    1.00     4.32768    -7.77171     0.00000
    71  H   1.0   -0.06    1.00     7.77171     4.32768     0.00000
    72  H   1.0   -0.06    1.00    -4.32768     7.77171     0.00000
    73  RN  8.0    0.11    2.86     0.00000     0.00000     0.00000
 
  Z AO/shell   Hii/eV     exponent
  1     Sat Jan 20 17:55:17 CET 2018    EN: 2.200 GAM: 0.531  GM3:-0.4370
     1s    -10.248275    1.266496
  6     Sat Jan 20 17:55:17 CET 2018    EN: 2.550 GAM: 0.417  GM3:-0.0654
     2s    -15.292509    2.030071
     2p    -10.408465    1.801676
  7     Sat Jan 20 17:55:17 CET 2018    EN: 3.040 GAM: 0.444  GM3:-0.1301
     2s    -16.687725    2.226550
     2p    -13.175143    1.981921
  8     Sat Jan 20 17:55:17 CET 2018    EN: 3.440 GAM: 0.468  GM3: 0.0937
     2s    -20.924998    2.442614
     2p    -15.243501    2.233841
 86     Sun Jan 21 16:39:38 CET 2018    EN: 2.200 GAM: 0.334  GM3:-0.0373
     6s    -18.000000    2.941358
     6p    -10.659871    2.613828
     5d     -0.786532    1.547573
 no old-style atom pair restraing (fixing) potential
 
 molecular fragmentation (1/2 indicates fragments):
1111111111111111111111111111111111111111111111111111111111111111111111112
# atoms in fragment 1/2:    72     1
 fragment masses (1/2) :      664.56      222.00
CMA distance (Bohr)    :   0.000
constraining FC (au)   :  0.0500
 
             =======================================
             |                                     |
             |        S C C  calculation           |
             |                                     |
             =======================================
 #proc     :                      1
 Ncao      :                    226
 Nao       :                    225
 Nel       :                    256
 T(el)     :   300.0
 intcut    :    25.0
 scfconv   :  0.100E-05
   qconv   :  0.200E-04
 intneglect:  0.100E-07
 broydamp  :      0.400
 Nshell    :                    123
  q data taken from xtbrestart
  CAMM data taken from xtbrestart
 iter      E             dE          RMSdq      gap      omega  full diag
   1   -152.0882177 -0.152088E+03  0.641E-01    4.84       0.0  T
   2   -152.0890777 -0.860080E-03  0.352E-01    4.96       1.0  T
   3   -152.0889346  0.143101E-03  0.757E-02    5.02       1.0  T
   4   -152.0892854 -0.350755E-03  0.205E-02    5.02       1.0  T
   5   -152.0892907 -0.532503E-05  0.101E-02    5.02       1.2  T
   6   -152.0892925 -0.180510E-05  0.368E-03    5.02       3.2  T
   7   -152.0892930 -0.434712E-06  0.174E-03    5.02       6.7  T
   8   -152.0892930 -0.332788E-07  0.387E-04    5.02      30.3  T
   9   -152.0892930 -0.272391E-08  0.901E-05    5.02     129.9  T
  10   -152.0892930 -0.343050E-10  0.442E-05    5.02     264.9  T
speedup  7.09
cpu  time for SCC    3.28 s
wall time for SCC    0.46 s

          eigenvalues
 #    :         116        117        118        119        120        121        122        123
 occ. :        2.000      2.000      2.000      2.000      2.000      2.000      2.000      2.000
 eps  :       -10.461    -10.458    -10.421    -10.305    -10.305    -10.257    -10.257    -10.241
 #    :         124        125        126        127        128        129        130        131
 occ. :        2.000      2.000      2.000      2.000      2.000      0.000      0.000      0.000
 eps  :       -10.188    -10.137    -10.129    -10.095    -10.095     -5.079     -4.920     -4.827
 #    :         132        133        134        135        136        137        138        139
 occ. :        0.000      0.000      0.000      0.000      0.000      0.000      0.000      0.000
 eps  :        -4.827     -4.781     -4.781     -4.665     -4.561     -0.745     -0.640     -0.559
 
 
 Mulliken/CM5 charges        n(s)   n(p)   n(d)
     1 C   0.06451  0.13930   1.086  2.850  0.000
     2 C   0.06451  0.13930   1.086  2.850  0.000
     3 C   0.06451  0.13930   1.086  2.850  0.000
     4 C   0.06451  0.13930   1.086  2.850  0.000
     5 C   0.06444  0.13920   1.086  2.850  0.000
     6 C   0.06444  0.13920   1.086  2.850  0.000
     7 C   0.06444  0.13920   1.086  2.850  0.000
     8 C   0.06444  0.13920   1.086  2.850  0.000
     9 N  -0.04265 -0.27746   1.141  3.902  0.000
    10 N  -0.04265 -0.27746   1.141  3.902  0.000
    11 N  -0.04265 -0.27746   1.141  3.902  0.000
    12 N  -0.04265 -0.27746   1.141  3.902  0.000
    13 N  -0.04265 -0.27746   1.141  3.902  0.000
    14 N  -0.04265 -0.27746   1.141  3.902  0.000
    15 N  -0.04265 -0.27746   1.141  3.902  0.000
    16 N  -0.04265 -0.27746   1.141  3.902  0.000
    17 N  -0.04267 -0.27741   1.141  3.902  0.000
    18 N  -0.04267 -0.27741   1.141  3.902  0.000
    19 N  -0.04267 -0.27741   1.141  3.902  0.000
    20 N  -0.04267 -0.27741   1.141  3.902  0.000
    21 N  -0.04267 -0.27741   1.141  3.902  0.000
    22 N  -0.04267 -0.27741   1.141  3.902  0.000
    23 N  -0.04267 -0.27741   1.141  3.902  0.000
    24 N  -0.04267 -0.27741   1.141  3.902  0.000
    25 C   0.22896  0.39192   1.066  2.705  0.000
    26 C   0.22896  0.39192   1.066  2.705  0.000
    27 C   0.22896  0.39192   1.066  2.705  0.000
    28 C   0.22896  0.39192   1.066  2.705  0.000
    29 C   0.22896  0.39192   1.066  2.705  0.000
    30 C   0.22896  0.39192   1.066  2.705  0.000
    31 C   0.22896  0.39192   1.066  2.705  0.000
    32 C   0.22896  0.39192   1.066  2.705  0.000
    33 O  -0.39132 -0.43196   1.733  4.658  0.000
    34 O  -0.39132 -0.43196   1.733  4.658  0.000
    35 O  -0.39132 -0.43196   1.733  4.658  0.000
    36 O  -0.39132 -0.43196   1.733  4.658  0.000
    37 O  -0.39132 -0.43196   1.733  4.658  0.000
    38 O  -0.39132 -0.43196   1.733  4.658  0.000
    39 O  -0.39132 -0.43196   1.733  4.658  0.000
    40 O  -0.39132 -0.43196   1.733  4.658  0.000
    41 C   0.03287  0.05215   1.075  2.892  0.000
    42 C   0.03287  0.05215   1.075  2.892  0.000
    43 C   0.03287  0.05215   1.075  2.892  0.000
    44 C   0.03287  0.05215   1.075  2.892  0.000
    45 C   0.03287  0.05215   1.075  2.892  0.000
    46 C   0.03287  0.05215   1.075  2.892  0.000
    47 C   0.03287  0.05215   1.075  2.892  0.000
    48 C   0.03287  0.05215   1.075  2.892  0.000
    49 H   0.03783  0.11437   0.962  0.000  0.000
    50 H   0.03783  0.11437   0.962  0.000  0.000
    51 H   0.03783  0.11437   0.962  0.000  0.000
    52 H   0.03783  0.11437   0.962  0.000  0.000
    53 H   0.03783  0.11437   0.962  0.000  0.000
    54 H   0.03783  0.11437   0.962  0.000  0.000
    55 H   0.03783  0.11437   0.962  0.000  0.000
    56 H   0.03783  0.11437   0.962  0.000  0.000
    57 H   0.07549  0.16181   0.925  0.000  0.000
    58 H   0.07549  0.16181   0.925  0.000  0.000
    59 H   0.07549  0.16181   0.925  0.000  0.000
    60 H   0.07549  0.16181   0.925  0.000  0.000
    61 H   0.07549  0.16181   0.925  0.000  0.000
    62 H   0.07549  0.16181   0.925  0.000  0.000
    63 H   0.07549  0.16181   0.925  0.000  0.000
    64 H   0.07549  0.16181   0.925  0.000  0.000
    65 H   0.02994  0.10863   0.970  0.000  0.000
    66 H   0.02994  0.10863   0.970  0.000  0.000
    67 H   0.02994  0.10863   0.970  0.000  0.000
    68 H   0.02994  0.10863   0.970  0.000  0.000
    69 H   0.02998  0.10865   0.970  0.000  0.000
    70 H   0.02998  0.10865   0.970  0.000  0.000
    71 H   0.02998  0.10865   0.970  0.000  0.000
    72 H   0.02998  0.10865   0.970  0.000  0.000
    73 RN  0.05639  0.14947   2.000  5.982 -0.038
 
 Wiberg/Mayer (AO) data. WBOs > 0.1 written file <wbo>
 largest (>0.05) Wiberg bond orders for each atom
           total WBO             WBO to atom ...
     1  C   3.975    N   21 0.997    N   17 0.997    C    5 0.952    H   69 0.951
     2  C   3.975    N   22 0.997    N   18 0.997    C    6 0.952    H   70 0.951
     3  C   3.975    N   23 0.997    N   19 0.997    C    7 0.952    H   71 0.951
     4  C   3.975    N   20 0.997    N   24 0.997    C    8 0.952    H   72 0.951
     5  C   3.975    N   13 0.997    N    9 0.997    C    1 0.952    H   65 0.951
     6  C   3.975    N   14 0.997    N   10 0.997    C    2 0.952    H   66 0.951
     7  C   3.975    N   15 0.997    N   11 0.997    C    3 0.952    H   67 0.951
     8  C   3.975    N   12 0.997    N   16 0.997    C    4 0.952    H   68 0.951
     9  N   3.414    C   25 1.096    C    5 0.997    C   41 0.996    O   33 0.148
    10  N   3.414    C   26 1.096    C    6 0.997    C   42 0.996    O   34 0.148
    11  N   3.414    C   27 1.096    C    7 0.997    C   43 0.996    O   35 0.148
    12  N   3.414    C   28 1.096    C    8 0.997    C   44 0.996    O   36 0.148
    13  N   3.414    C   29 1.096    C    5 0.997    C   45 0.996    O   37 0.148
    14  N   3.414    C   30 1.096    C    6 0.997    C   46 0.996    O   38 0.148
    15  N   3.414    C   31 1.096    C    7 0.997    C   47 0.996    O   39 0.148
    16  N   3.414    C   32 1.096    C    8 0.997    C   48 0.996    O   40 0.148
    17  N   3.414    C   25 1.095    C    1 0.997    C   42 0.996    O   33 0.148
    18  N   3.414    C   26 1.095    C    2 0.997    C   43 0.996    O   34 0.148
    19  N   3.414    C   27 1.095    C    3 0.997    C   48 0.996    O   35 0.148
    20  N   3.414    C   28 1.095    C    4 0.997    C   45 0.996    O   36 0.148
    21  N   3.414    C   29 1.095    C    1 0.997    C   46 0.996    O   37 0.148
    22  N   3.414    C   30 1.095    C    2 0.997    C   47 0.996    O   38 0.148
    23  N   3.414    C   31 1.095    C    3 0.997    C   44 0.996    O   39 0.148
    24  N   3.414    C   32 1.095    C    4 0.997    C   41 0.996    O   40 0.148
    25  C   3.962    O   33 1.714    N    9 1.096    N   17 1.095
    26  C   3.962    O   34 1.714    N   10 1.096    N   18 1.095
    27  C   3.962    O   35 1.714    N   11 1.096    N   19 1.095
    28  C   3.962    O   36 1.714    N   12 1.096    N   20 1.095
    29  C   3.962    O   37 1.714    N   13 1.096    N   21 1.095
    30  C   3.962    O   38 1.714    N   14 1.096    N   22 1.095
    31  C   3.962    O   39 1.714    N   15 1.096    N   23 1.095
    32  C   3.962    O   40 1.714    N   16 1.096    N   24 1.095
    33  O   2.069    C   25 1.714    N    9 0.148    N   17 0.148
    34  O   2.069    C   26 1.714    N   10 0.148    N   18 0.148
    35  O   2.069    C   27 1.714    N   11 0.148    N   19 0.148
    36  O   2.069    C   28 1.714    N   12 0.148    N   20 0.148
    37  O   2.069    C   29 1.714    N   13 0.148    N   21 0.148
    38  O   2.069    C   30 1.714    N   14 0.148    N   22 0.148
    39  O   2.069    C   31 1.714    N   15 0.148    N   23 0.148
    40  O   2.069    C   32 1.714    N   16 0.148    N   24 0.148
    41  C   3.967    N    9 0.996    N   24 0.996    H   49 0.966    H   57 0.960
    42  C   3.967    N   10 0.996    N   17 0.996    H   50 0.966    H   58 0.960
    43  C   3.967    N   11 0.996    N   18 0.996    H   51 0.966    H   59 0.960
    44  C   3.967    N   12 0.996    N   23 0.996    H   52 0.966    H   60 0.960
    45  C   3.967    N   13 0.996    N   20 0.996    H   53 0.966    H   61 0.960
    46  C   3.967    N   14 0.996    N   21 0.996    H   54 0.966    H   62 0.960
    47  C   3.967    N   15 0.996    N   22 0.996    H   55 0.966    H   63 0.960
    48  C   3.967    N   16 0.996    N   19 0.996    H   56 0.966    H   64 0.960
    49  H   0.998    C   41 0.966
    50  H   0.998    C   42 0.966
    51  H   0.998    C   43 0.966
    52  H   0.998    C   44 0.966
    53  H   0.998    C   45 0.966
    54  H   0.998    C   46 0.966
    55  H   0.998    C   47 0.966
    56  H   0.998    C   48 0.966
    57  H   0.994    C   41 0.960
    58  H   0.994    C   42 0.960
    59  H   0.994    C   43 0.960
    60  H   0.994    C   44 0.960
    61  H   0.994    C   45 0.960
    62  H   0.994    C   46 0.960
    63  H   0.994    C   47 0.960
    64  H   0.994    C   48 0.960
    65  H   0.999    C    5 0.951
    66  H   0.999    C    6 0.951
    67  H   0.999    C    7 0.951
    68  H   0.999    C    8 0.951
    69  H   0.999    C    1 0.951
    70  H   0.999    C    2 0.951
    71  H   0.999    C    3 0.951
    72  H   0.999    C    4 0.951
    73  RN -0.042
 density
 
 cube file module (SG, 7/16)
 cube_pthr     :   0.005
 cube_step     :   0.400
 non-zero P (%):  33.254   nmat:    8530
 Grid Boundaries (x y z) :
   11.8929558310952        11.8929558310952        9.01758662116358     
  -11.8929558310952       -11.8929558310952       -9.01758662116358     
 Total # of points                165600
 writing density.cub
 N    (numint) : ******
cpu  time for cube   52.20 s
wall time for cube   50.59 s
 
molecular dipole:
                 x           y           z       tot (Debye)
 q only:       -0.000       0.000      -0.000
   full:       -0.000       0.000      -0.000       0.000
molecular quadrupole (traceless):
                xx          xy          yy          xz          yz          zz
 q only:       51.353       0.000      51.353       0.000       0.000    -102.707
  q+dip:       62.234       0.000      62.234       0.000       0.000    -124.469
   full:       63.587       0.000      63.587       0.000       0.000    -127.173
 SCC converged in                     10  cycles
 
SCC energy    :    -152.0892930
rep           :       1.3874851
ES            :       0.0083156
AES           :       0.0172675
disp          :      -0.1160130
XB            :       0.0000000
fix           :       0.0000000
total E       :    -150.8178209
atomizationE  :      19.6753143    12346.45
(atE without considerung molecular charge,
 total energy contains solvation terms)
H-L gap (eV)  :          5.0167
 
             =======================================
             |                                     |
             |    Approximate Normal Coordinate    |
             |   Rational Function Optimization    |
             |                                     |
             =======================================
Ref. for RF algo: F.Eckert, P.Pulay, H.-J.Werner
                  J.Comput.Chem. 18 (1997) 1473.
ANC idea implemented by S. Grimme in the 2000ers (unpublished)
restraining potential by S. Ehrlich.
dumping coords to <xtbopt.coord> and <xtbopt.log
 optlevel                         1
 Maxcycle                       365
 Maxmicro                        20
 Econv         1.000000000000000E-006
 Gconv         8.000000000000000E-004
 Maxdispl       1.00000000000000     
 Hlow          4.000000000000000E-003
 S6             20.0000000000000     
 Nvar                        213

generating ANC from model Hessian ...
 Shifting diagonal of input Hessian by   3.729793445253862E-002
 Lowest  eigenvalues of input Hessian
    0.004000    0.004000    0.024262   -0.000000   -0.000000   -0.000000
    0.000000    0.000000    0.000000    0.039736    0.040125    0.040197
    0.041092    0.045341    0.045341    0.047401    0.049361    0.049533
 Highest eigenvalues
    2.468937    2.469720    2.472708    2.473858    2.473858    2.477945
 
cpu  time for ANC gen    0.26 s
wall time for ANC gen    0.13 s
................................................................................
.............................. CYCLE    1 ......................................
................................................................................
  q data taken from xtbrestart
  CAMM data taken from xtbrestart
   1   -152.0892930 -0.152089E+03  0.105E-05    5.02       0.0  T
   2   -152.0892930 -0.275691E-11  0.588E-06    5.02    1989.2  T
   3   -152.0892930 -0.994760E-12  0.362E-06    5.02    3235.9  T
speedup  8.86
cpu  time for SCC    1.53 s
wall time for SCC    0.17 s
speedup 11.55
cpu  time for grad    2.14 s
wall time for grad    0.19 s
 E :   -150.81782092  G :  0.099012    pred/act E change:  0.000D+00 -0.208D-10
Maxdispl :   0.1816   ||displ|| :   0.3681   Lambda : -0.243D-01
Largest |displ|/coords:  0.1816 (  73)  0.1511 (  49)  0.1413 (  29)
................................................................................
.............................. CYCLE    2 ......................................
................................................................................
   1   -152.1611707 -0.152161E+03  0.195E-01    5.17       0.0  T
   2   -152.1613352 -0.164473E-03  0.111E-01    5.16       1.0  T
   3   -152.1612531  0.820105E-04  0.481E-02    5.18       1.0  T
   4   -152.1613885 -0.135338E-03  0.863E-03    5.17       1.4  T
   5   -152.1613896 -0.111432E-05  0.408E-03    5.17       2.9  T
   6   -152.1613898 -0.177346E-06  0.179E-03    5.17       6.5  T
   7   -152.1613898 -0.493461E-07  0.661E-04    5.17      17.7  T
   8   -152.1613898 -0.849289E-08  0.195E-04    5.17      60.0  T
speedup  9.21
cpu  time for SCC    3.33 s
wall time for SCC    0.36 s
speedup  8.32
cpu  time for grad    1.29 s
wall time for grad    0.16 s
 E :   -150.83610119  G :  0.040719    pred/act E change:  0.000D+00 -0.183D-01
Maxdispl :   0.1998   ||displ|| :   0.4335   Lambda : -0.140D-01
Largest |displ|/coords:  0.1998 (  29)  0.1936 (  49)  0.1643 (  11)
................................................................................
.............................. CYCLE    3 ......................................
................................................................................
   1   -152.2154253 -0.152215E+03  0.242E-01    5.22       0.0  T
   2   -152.2156379 -0.212681E-03  0.135E-01    5.21       1.0  T
   3   -152.2156339  0.406621E-05  0.298E-02    5.22       1.0  T
   4   -152.2156721 -0.381870E-04  0.108E-02    5.22       1.1  T
   5   -152.2156748 -0.269040E-05  0.411E-03    5.22       2.8  T
   6   -152.2156751 -0.351454E-06  0.226E-03    5.22       5.2  T
   7   -152.2156752 -0.720656E-07  0.584E-04    5.22      20.0  T
   8   -152.2156752 -0.865111E-08  0.231E-04    5.22      50.6  T
speedup  9.48
cpu  time for SCC    2.41 s
wall time for SCC    0.25 s
speedup  8.85
cpu  time for grad    1.33 s
wall time for grad    0.15 s
 E :   -150.84489151  G :  0.020038    pred/act E change: -0.138D-01 -0.879D-02
Maxdispl :   0.1301   ||displ|| :   0.2182   Lambda : -0.222D-02
Largest |displ|/coords:  0.1301 (  29)  0.0996 (  45)  0.0890 (  11)
................................................................................
.............................. CYCLE    4 ......................................
................................................................................
   1   -152.2293121 -0.152229E+03  0.908E-02    5.20       0.0  T
   2   -152.2293505 -0.383999E-04  0.500E-02    5.20       1.0  T
   3   -152.2293518 -0.127608E-05  0.111E-02    5.20       1.1  T
   4   -152.2293556 -0.383355E-05  0.430E-03    5.20       2.7  T
   5   -152.2293562 -0.528087E-06  0.155E-03    5.20       7.6  T
   6   -152.2293562 -0.861071E-07  0.824E-04    5.20      14.2  T
   7   -152.2293562 -0.609865E-08  0.226E-04    5.20      51.7  T
speedup  8.69
cpu  time for SCC    3.06 s
wall time for SCC    0.35 s
speedup 10.00
cpu  time for grad    1.39 s
wall time for grad    0.14 s
 E :   -150.84627607  G :  0.009051    pred/act E change: -0.831D-02 -0.138D-02
Maxdispl :   0.0657   ||displ|| :   0.1067   Lambda : -0.469D-03
Largest |displ|/coords:  0.0657 (  29)  0.0524 (  11)  0.0491 (  45)
................................................................................
.............................. CYCLE    5 ......................................
................................................................................
   1   -152.2328927 -0.152233E+03  0.214E-02    5.19       0.0  T
   2   -152.2328966 -0.383342E-05  0.111E-02    5.20       1.1  T
   3   -152.2328967 -0.103424E-06  0.471E-03    5.20       2.5  T
   4   -152.2328970 -0.319995E-06  0.102E-03    5.20      11.5  T
   5   -152.2328970 -0.283532E-07  0.444E-04    5.20      26.4  T
   6   -152.2328970 -0.821638E-08  0.170E-04    5.20      68.9  T
speedup  8.62
cpu  time for SCC    2.69 s
wall time for SCC    0.31 s
speedup 12.06
cpu  time for grad    2.01 s
wall time for grad    0.17 s
 E :   -150.84658544  G :  0.004461    pred/act E change: -0.116D-02 -0.309D-03
Maxdispl :   0.0441   ||displ|| :   0.0660   Lambda : -0.152D-03
Largest |displ|/coords:  0.0441 (  11)  0.0279 (  29)  0.0277 (  20)
................................................................................
.............................. CYCLE    6 ......................................
................................................................................
   1   -152.2336747 -0.152234E+03  0.167E-02    5.20       0.0  T
   2   -152.2336766 -0.182578E-05  0.908E-03    5.20       1.3  T
   3   -152.2336765  0.260877E-08  0.327E-03    5.20       3.6  T
   4   -152.2336768 -0.215299E-06  0.631E-04    5.20      18.6  T
   5   -152.2336768 -0.673603E-08  0.298E-04    5.20      39.3  T
   6   -152.2336768 -0.214436E-08  0.109E-04    5.20     107.7  T
speedup 10.27
cpu  time for SCC    1.90 s
wall time for SCC    0.19 s
speedup  8.53
cpu  time for grad    1.30 s
wall time for grad    0.15 s
 E :   -150.84668372  G :  0.002419    pred/act E change: -0.237D-03 -0.983D-04
Maxdispl :   0.0377   ||displ|| :   0.0448   Lambda : -0.514D-04
Largest |displ|/coords:  0.0377 (  11)  0.0182 (  20)  0.0093 (  49)
................................................................................
.............................. CYCLE    7 ......................................
................................................................................
   1   -152.2336391 -0.152234E+03  0.166E-02    5.20       0.0  T
   2   -152.2336400 -0.878536E-06  0.950E-03    5.20       1.2  T
   3   -152.2336399  0.296364E-07  0.210E-03    5.20       5.6  T
   4   -152.2336401 -0.158818E-06  0.738E-04    5.20      15.9  T
   5   -152.2336401 -0.988285E-08  0.326E-04    5.20      35.9  T
   6   -152.2336401 -0.336837E-08  0.152E-04    5.20      77.2  T
   7   -152.2336401 -0.110020E-09  0.551E-05    5.20     212.5  T
speedup  8.91
cpu  time for SCC    2.63 s
wall time for SCC    0.29 s
speedup 10.22
cpu  time for grad    1.59 s
wall time for grad    0.16 s
 E :   -150.84672073  G :  0.001613    pred/act E change: -0.765D-04 -0.370D-04
Maxdispl :   0.0689   ||displ|| :   0.1081   Lambda : -0.695D-04
Largest |displ|/coords:  0.0689 (  11)  0.0619 (   1)  0.0426 (   2)
................................................................................
.............................. CYCLE    8 ......................................
................................................................................
   1   -152.2332024 -0.152233E+03  0.673E-02    5.20       0.0  T
   2   -152.2332058 -0.340033E-05  0.429E-02    5.20       1.0  T
   3   -152.2332062 -0.377570E-06  0.527E-03    5.20       2.2  T
   4   -152.2332069 -0.707645E-06  0.282E-03    5.20       4.2  T
   5   -152.2332070 -0.115782E-06  0.127E-03    5.20       9.2  T
   6   -152.2332071 -0.239472E-07  0.513E-04    5.20      22.8  T
   7   -152.2332071 -0.378665E-08  0.170E-04    5.20      68.9  T
   8   -152.2332071 -0.643070E-09  0.685E-05    5.20     170.9  T
speedup  8.80
cpu  time for SCC    3.28 s
wall time for SCC    0.37 s
speedup  9.81
cpu  time for grad    1.56 s
wall time for grad    0.16 s
 E :   -150.84663032  G :  0.004566    pred/act E change: -0.257D-04  0.904D-04
Maxdispl :   0.0650   ||displ|| :   0.0927   Lambda : -0.280D-03
Largest |displ|/coords:  0.0650 (   1)  0.0447 (   2)  0.0429 (  11)
................................................................................
.............................. CYCLE    9 ......................................
................................................................................
   1   -152.2329644 -0.152233E+03  0.662E-02    5.21       0.0  T
   2   -152.2329666 -0.214825E-05  0.428E-02    5.21       1.0  T
   3   -152.2329671 -0.504459E-06  0.376E-03    5.20       3.1  T
   4   -152.2329676 -0.478386E-06  0.213E-03    5.21       5.5  T
   5   -152.2329677 -0.892642E-07  0.109E-03    5.21      10.8  T
   6   -152.2329677 -0.109837E-07  0.316E-04    5.21      37.0  T
   7   -152.2329677 -0.150618E-08  0.142E-04    5.21      82.6  T
speedup  8.73
cpu  time for SCC    3.01 s
wall time for SCC    0.35 s
speedup  8.45
cpu  time for grad    1.30 s
wall time for grad    0.15 s
 E :   -150.84675569  G :  0.003177    pred/act E change: -0.351D-04 -0.125D-03
Maxdispl :   0.0361   ||displ|| :   0.0441   Lambda : -0.307D-04
Largest |displ|/coords:  0.0361 (  11)  0.0177 (  20)  0.0131 (  49)
................................................................................
.............................. CYCLE   10 ......................................
................................................................................
   1   -152.2334334 -0.152233E+03  0.176E-02    5.20       0.0  T
   2   -152.2334345 -0.108542E-05  0.101E-02    5.20       1.2  T
   3   -152.2334344  0.981698E-07  0.243E-03    5.20       4.8  T
   4   -152.2334347 -0.267720E-06  0.860E-04    5.20      13.6  T
   5   -152.2334347 -0.177539E-07  0.354E-04    5.20      33.0  T
   6   -152.2334347 -0.351864E-08  0.165E-04    5.20      71.0  T
   7   -152.2334347 -0.137305E-09  0.574E-05    5.20     203.8  T
speedup 11.44
cpu  time for SCC    2.73 s
wall time for SCC    0.24 s
speedup  8.49
cpu  time for grad    1.48 s
wall time for grad    0.17 s
 E :   -150.84676978  G :  0.000731    pred/act E change: -0.141D-03 -0.141D-04
Maxdispl :   0.0180   ||displ|| :   0.0209   Lambda : -0.663D-05
Largest |displ|/coords:  0.0180 (  11)  0.0074 (  29)  0.0056 (  20)
................................................................................
.............................. CYCLE   11 ......................................
................................................................................
   1   -152.2333291 -0.152233E+03  0.738E-03    5.20       0.0  T
   2   -152.2333292 -0.908669E-07  0.445E-03    5.20       2.6  T
   3   -152.2333291  0.343202E-07  0.945E-04    5.20      12.4  T
   4   -152.2333292 -0.489933E-07  0.369E-04    5.20      31.7  T
   5   -152.2333292 -0.267184E-08  0.194E-04    5.20      60.4  T
   6   -152.2333292 -0.126875E-09  0.680E-05    5.20     172.1  T
speedup  8.58
cpu  time for SCC    2.85 s
wall time for SCC    0.33 s
speedup  9.75
cpu  time for grad    1.68 s
wall time for grad    0.17 s
 E :   -150.84677448  G :  0.000480    pred/act E change: -0.154D-04 -0.470D-05
Maxdispl :   0.0509   ||displ|| :   0.0754   Lambda : -0.154D-04
Largest |displ|/coords:  0.0509 (  11)  0.0354 (   2)  0.0326 (   1)
................................................................................
.............................. CYCLE   12 ......................................
................................................................................
   1   -152.2329757 -0.152233E+03  0.431E-02    5.20       0.0  T
   2   -152.2329770 -0.130590E-05  0.276E-02    5.20       1.0  T
   3   -152.2329766  0.389194E-06  0.395E-03    5.20       3.0  T
   4   -152.2329775 -0.831190E-06  0.182E-03    5.20       6.4  T
   5   -152.2329775 -0.555799E-07  0.940E-04    5.20      12.5  T
   6   -152.2329775 -0.422585E-08  0.255E-04    5.20      45.9  T
   7   -152.2329775 -0.497067E-09  0.995E-05    5.20     117.6  T
   8   -152.2329775 -0.287400E-09  0.371E-05    5.20     315.9  T
speedup  8.93
cpu  time for SCC    3.36 s
wall time for SCC    0.38 s
speedup  9.51
cpu  time for grad    1.62 s
wall time for grad    0.17 s
 E :   -150.84672378  G :  0.002403    pred/act E change: -0.332D-05  0.507D-04
Maxdispl :   0.0337   ||displ|| :   0.0569   Lambda : -0.106D-03
Largest |displ|/coords:  0.0337 (   2)  0.0312 (   1)  0.0300 (  11)
................................................................................
.............................. CYCLE   13 ......................................
................................................................................
   1   -152.2333036 -0.152233E+03  0.388E-02    5.20       0.0  T
   2   -152.2333044 -0.809716E-06  0.251E-02    5.20       1.0  T
   3   -152.2333044 -0.742102E-08  0.268E-03    5.20       4.4  T
   4   -152.2333048 -0.341272E-06  0.135E-03    5.20       8.7  T
   5   -152.2333048 -0.350493E-07  0.684E-04    5.20      17.1  T
   6   -152.2333048 -0.322154E-08  0.196E-04    5.20      59.6  T
   7   -152.2333048 -0.460233E-09  0.869E-05    5.20     134.8  T
speedup  8.50
cpu  time for SCC    3.11 s
wall time for SCC    0.37 s
speedup  9.99
cpu  time for grad    1.86 s
wall time for grad    0.19 s
 E :   -150.84677663  G :  0.000191    pred/act E change: -0.774D-05 -0.529D-04
Maxdispl :   0.0035   ||displ|| :   0.0039   Lambda : -0.141D-06
Largest |displ|/coords:  0.0035 (  11)  0.0013 (  29)  0.0008 (  20)
................................................................................
.............................. CYCLE   14 ......................................
................................................................................
   1   -152.2333514 -0.152233E+03  0.127E-03    5.20       0.0  T
   2   -152.2333514 -0.410296E-08  0.755E-04    5.20      15.5  T
   3   -152.2333514  0.169004E-08  0.193E-04    5.20      60.6  T
   4   -152.2333514 -0.223957E-08  0.564E-05    5.20     207.5  T
speedup 10.58
cpu  time for SCC    2.48 s
wall time for SCC    0.23 s
speedup  8.44
cpu  time for grad    1.51 s
wall time for grad    0.18 s
 E :   -150.84677670  G :  0.000076    pred/act E change: -0.531D-04 -0.701D-07
Maxdispl :   0.0003   ||displ|| :   0.0004   Lambda : -0.150D-07
Largest |displ|/coords:  0.0003 (  49)  0.0002 (  29)  0.0002 (  20)
ancopt converged in         14 cycles
total energy gain (kcal):    -18.1700
================
 final structure:
================
    73
       -150.84677670
C          -3.16890434755669   -1.60885010276994   -0.00000000725532
C           1.60885627909452   -3.16892152536974   -0.00000000385743
C           3.16891169241186    1.60885208244024   -0.00000000605318
C          -1.60885861007196    3.16892401016937    0.00000000297362
C          -3.55238089007271   -0.10531933948396   -0.00000000803709
C           0.10532300538294   -3.55239117108317   -0.00000000400622
C           3.55238822758578    0.10531909744238   -0.00000001354992
C          -0.10532504891661    3.55239587248545    0.00000000031843
N          -2.97363058167727    0.38422555670488   -1.21997911624788
N          -0.38421865755890   -2.97364050633635   -1.21998151134388
N           2.97363263878733   -0.38422815684400   -1.21997459280309
N           0.38421864834947    2.97364241744573    1.21997860855881
N          -2.97363058887138    0.38422556275663    1.21997911253324
N          -0.38421865742306   -2.97364050488672    1.21998151939164
N           2.97363264178635   -0.38422816986199    1.21997461168100
N           0.38421864957855    2.97364245317450   -1.21997860298517
N          -2.42637809143661   -1.76140646885767   -1.21997259226538
N           1.76141577993390   -2.42639698087994   -1.21997479688247
N           2.42637914540598    1.76140860094246   -1.21996777795457
N          -1.76141778099413    2.42639695377856    1.21997182408237
N          -2.42637808584888   -1.76140647272086    1.21997260099789
N           1.76141578562556   -2.42639698368877    1.21997479256597
N           2.42637916830506    1.76140860997442    1.21996777877324
N          -1.76141777992718    2.42639695542831   -1.21997183178535
C          -2.46020672205623   -0.62743209925337   -2.00349415264988
C           0.62744176620145   -2.46022480179286   -2.00350000709917
C           2.46020118287737    0.62743015863676   -2.00348202866454
C          -0.62744210926114    2.46022038088822    2.00349196341088
C          -2.46020673140329   -0.62743209097532    2.00349415757745
C           0.62744176396074   -2.46022478834964    2.00350000573380
C           2.46020119615823    0.62743016526748    2.00348202983443
C          -0.62744210513329    2.46022038092566   -2.00349196221974
O          -2.13319128936260   -0.54402853315467   -3.15009427115438
O           0.54404300327923   -2.13322149678269   -3.15010593291611
O           2.13317492035364    0.54402397316484   -3.15007715607639
O          -0.54404060035629    2.13320805375876    3.15009324448301
O          -2.13319131364073   -0.54402851906825    3.15009427614332
O           0.54404301183649   -2.13322146097992    3.15010592376617
O           2.13317493062220    0.54402398858857    3.15007715733572
O          -0.54404057083175    2.13320804420754   -3.15009323596238
C          -2.95073712107793    1.75150186588522   -1.66063940092540
C          -1.75149597625953   -2.95073157075621   -1.66064072078440
C           2.95073678909750   -1.75150494436409   -1.66063953150538
C           1.75149564612496    2.95073330645327    1.66063898393096
C          -2.95073713022286    1.75150186232329    1.66063939378857
C          -1.75149597853854   -2.95073156066244    1.66064072001689
C           2.95073679470178   -1.75150493896855    1.66063952288973
C           1.75149564291844    2.95073331649938   -1.66063898296153
H          -3.84703058714539    2.28353353759844   -1.32070589949827
H          -2.28353627531630   -3.84701898272864   -1.32070559996926
H           3.84703107818926   -2.28353699369251   -1.32070579351513
H           2.28353752328999    3.84702263344577    1.32070656534476
H          -3.84703059349422    2.28353354186082    1.32070589608526
H          -2.28353627270523   -3.84701898165769    1.32070560681783
H           3.84703108088877   -2.28353699796506    1.32070578471866
H           2.28353753548773    3.84702263186693   -1.32070655702935
H          -2.89356424897765    1.71756814668647   -2.75746320845891
H          -1.71756065812028   -2.89356071886593   -2.75746427422606
H           2.89356500880894   -1.71756724060551   -2.75746418730076
H           1.71755885280009    2.89355837698862    2.75746378741247
H          -2.89356425603015    1.71756814683405    2.75746320210600
H          -1.71756065876380   -2.89356072159488    2.75746427972763
H           2.89356501891243   -1.71756726345244    2.75746418678419
H           1.71755884203403    2.89355839314395   -2.75746378421897
H          -4.64691859776713    0.06485385210174   -0.00000000751357
H          -0.06485255874300   -4.64692913920720    0.00000000286570
H           4.64692704176873   -0.06485521853606    0.00000000790320
H           0.06485102897825    4.64693441008031    0.00000003220534
H          -4.04822974561580   -2.28246448004796    0.00000000457072
H           2.28246668187551   -4.04825174526248   -0.00000000391048
H           4.04823754965423    2.28246836714282   -0.00000002523965
H          -2.28246856641464    4.04825436094557    0.00000000062657
RN          0.00001423452588    0.00003160347007    0.00000000087126
 
 Bond Distances (Angstroems)
 ---------------------------
C1-C5=1.5517         C1-N17=1.4363        C1-N21=1.4363        C1-H69=1.1077        C2-C6=1.5517         C2-N18=1.4363        
C2-N22=1.4363        C2-H70=1.1077        C3-C7=1.5517         C3-N19=1.4363        C3-N23=1.4363        C3-H71=1.1077        
C4-C8=1.5517         C4-N20=1.4363        C4-N24=1.4363        C4-H72=1.1077        C5-C1=1.5517         C5-N9=1.4363         
C5-N13=1.4363        C5-H65=1.1077        C6-C2=1.5517         C6-N10=1.4363        C6-N14=1.4363        C6-H66=1.1077        
C7-C3=1.5517         C7-N11=1.4363        C7-N15=1.4363        C7-H67=1.1077        C8-C4=1.5517         C8-N12=1.4363        
C8-N16=1.4363        C8-H68=1.1077        N9-C5=1.4363         N9-C25=1.3787        N9-C41=1.4367        N10-C6=1.4363        
N10-C26=1.3788       N10-C42=1.4367       N11-C7=1.4363        N11-C27=1.3787       N11-C43=1.4367       N12-C8=1.4363        
N12-C28=1.3788       N12-C44=1.4367       N13-C5=1.4363        N13-C29=1.3787       N13-C45=1.4367       N14-C6=1.4363        
N14-C30=1.3788       N14-C46=1.4367       N15-C7=1.4363        N15-C31=1.3787       N15-C47=1.4367       N16-C8=1.4363        
N16-C32=1.3788       N16-C48=1.4367       N17-C1=1.4363        N17-C25=1.3787       N17-C42=1.4367       N18-C2=1.4363        
N18-C26=1.3788       N18-C43=1.4367       N19-C3=1.4363        N19-C27=1.3787       N19-C48=1.4367       N20-C4=1.4363        
N20-C28=1.3787       N20-C45=1.4367       N21-C1=1.4363        N21-C29=1.3787       N21-C46=1.4367       N22-C2=1.4363        
N22-C30=1.3788       N22-C47=1.4367       N23-C3=1.4363        N23-C31=1.3787       N23-C44=1.4367       N24-C4=1.4363        
N24-C32=1.3787       N24-C41=1.4367       C25-N9=1.3787        C25-N17=1.3787       C25-O33=1.1952       C26-N10=1.3788       
C26-N18=1.3788       C26-O34=1.1952       C27-N11=1.3787       C27-N19=1.3787       C27-O35=1.1952       C28-N12=1.3788       
C28-N20=1.3787       C28-O36=1.1952       C29-N13=1.3787       C29-N21=1.3787       C29-O37=1.1952       C30-N14=1.3788       
C30-N22=1.3788       C30-O38=1.1952       C31-N15=1.3787       C31-N23=1.3787       C31-O39=1.1952       C32-N16=1.3788       
C32-N24=1.3787       C32-O40=1.1952       O33-C25=1.1952       O34-C26=1.1952       O35-C27=1.1952       O36-C28=1.1952       
O37-C29=1.1952       O38-C30=1.1952       O39-C31=1.1952       O40-C32=1.1952       C41-N9=1.4367        C41-N24=1.4367       
C41-H49=1.0963       C41-H57=1.0988       C42-N10=1.4367       C42-N17=1.4367       C42-H50=1.0963       C42-H58=1.0988       
C43-N11=1.4367       C43-N18=1.4367       C43-H51=1.0963       C43-H59=1.0988       C44-N12=1.4367       C44-N23=1.4367       
C44-H52=1.0963       C44-H60=1.0988       C45-N13=1.4367       C45-N20=1.4367       C45-H53=1.0963       C45-H61=1.0988       
C46-N14=1.4367       C46-N21=1.4367       C46-H54=1.0963       C46-H62=1.0988       C47-N15=1.4367       C47-N22=1.4367       
C47-H55=1.0963       C47-H63=1.0988       C48-N16=1.4367       C48-N19=1.4367       C48-H56=1.0963       C48-H64=1.0988       
H49-C41=1.0963       H50-C42=1.0963       H51-C43=1.0963       H52-C44=1.0963       H53-C45=1.0963       H54-C46=1.0963       
H55-C47=1.0963       H56-C48=1.0963       H57-C41=1.0988       H58-C42=1.0988       H59-C43=1.0988       H60-C44=1.0988       
H61-C45=1.0988       H62-C46=1.0988       H63-C47=1.0988       H64-C48=1.0988       H65-C5=1.1077        H66-C6=1.1077        
H67-C7=1.1077        H68-C8=1.1077        H69-C1=1.1077        H70-C2=1.1077        H71-C3=1.1077        H72-C4=1.1077        
 C  H  Rav=1.1010 sigma=0.0049  Rmin=1.0963  Rmax=1.1077    24
 C  C  Rav=1.5517 sigma=0.0000  Rmin=1.5517  Rmax=1.5517     4
 N  C  Rav=1.4173 sigma=0.0272  Rmin=1.3787  Rmax=1.4367    48
 O  C  Rav=1.1952 sigma=0.0000  Rmin=1.1952  Rmax=1.1952     8
 
 selected bond angles (degree)
 --------------------
N17-C1-C5=103.34               N21-C1-C5=103.34               N21-C1-N17=116.29              H69-C1-C5=113.15               
H69-C1-N17=110.23              H69-C1-N21=110.23              N18-C2-C6=103.34               N22-C2-C6=103.34               
N22-C2-N18=116.29              H70-C2-C6=113.15               H70-C2-N18=110.23              H70-C2-N22=110.23              
N19-C3-C7=103.34               N23-C3-C7=103.34               N23-C3-N19=116.29              H71-C3-C7=113.15               
H71-C3-N19=110.23              H71-C3-N23=110.23              N20-C4-C8=103.34               N24-C4-C8=103.34               
N24-C4-N20=116.29              H72-C4-C8=113.15               H72-C4-N20=110.23              H72-C4-N24=110.23              
N9-C5-C1=103.34                N13-C5-C1=103.34               N13-C5-N9=116.29               H65-C5-C1=113.15               
H65-C5-N9=110.23               H65-C5-N13=110.23              N10-C6-C2=103.34               N14-C6-C2=103.34               
N14-C6-N10=116.29              H66-C6-C2=113.15               H66-C6-N10=110.23              H66-C6-N14=110.23              
N11-C7-C3=103.34               N15-C7-C3=103.34               N15-C7-N11=116.29              H67-C7-C3=113.15               
H67-C7-N11=110.23              H67-C7-N15=110.23              N12-C8-C4=103.34               N16-C8-C4=103.34               
N16-C8-N12=116.29              H68-C8-C4=113.15               H68-C8-N12=110.23              H68-C8-N16=110.23              
C25-N9-C5=112.50               C41-N9-C5=126.25               C41-N9-C25=121.20              C26-N10-C6=112.50              
C42-N10-C6=126.25              C42-N10-C26=121.20             
 
 selected dihedral angles (degree)
 ---------------------------------
N9-C5-C1-N17=  0.00           N9-C5-C1-N21=121.60           N9-C5-C1-H69=240.80           N13-C5-C1-N17=238.40          
N13-C5-C1-N21=  0.00          N13-C5-C1-H69=119.20          H65-C5-C1-N17=119.20          H65-C5-C1-N21=240.80          
H65-C5-C1-H69=  0.00          N10-C6-C2-N18=  0.00          N10-C6-C2-N22=121.60          N10-C6-C2-H70=240.80          
N14-C6-C2-N18=238.40          N14-C6-C2-N22=  0.00          N14-C6-C2-H70=119.20          H66-C6-C2-N18=119.20          
H66-C6-C2-N22=240.80          H66-C6-C2-H70=  0.00          N11-C7-C3-N19=  0.00          N11-C7-C3-N23=121.60          
N11-C7-C3-H71=240.80          N15-C7-C3-N19=238.40          N15-C7-C3-N23=  0.00          N15-C7-C3-H71=119.20          
H67-C7-C3-N19=119.20          H67-C7-C3-N23=240.80          H67-C7-C3-H71=  0.00          N12-C8-C4-N20=  0.00          
N12-C8-C4-N24=238.40          N12-C8-C4-H72=119.20          N16-C8-C4-N20=121.60          N16-C8-C4-N24=  0.00          
N16-C8-C4-H72=240.80          H68-C8-C4-N20=240.80          H68-C8-C4-N24=119.20          H68-C8-C4-H72=  0.00          
C25-N9-C5-C1=  7.50           C25-N9-C5-N13=119.93          C25-N9-C5-H65=246.31          C41-N9-C5-C1=184.92           
C41-N9-C5-N13=297.35          C41-N9-C5-H65= 63.73          C26-N10-C6-C2=  7.50          C26-N10-C6-N14=119.93         
C26-N10-C6-H66=246.31         C42-N10-C6-C2=184.92          C42-N10-C6-N14=297.35         C42-N10-C6-H66= 63.73         
 
 CMA Distance (Angstroems)
 ---------------------------
R(CMA):  0.0000
 
             =======================================
             |                                     |
             |        S C C  calculation           |
             |                                     |
             =======================================
 #proc     :                      1
 Ncao      :                    226
 Nao       :                    225
 Nel       :                    256
 T(el)     :   300.0
 intcut    :    25.0
 scfconv   :  0.100E-05
   qconv   :  0.200E-04
 intneglect:  0.100E-07
 broydamp  :      0.400
 Nshell    :                    123
 iter      E             dE          RMSdq      gap      omega  full diag
   1   -152.2333514 -0.152233E+03  0.154E-05    5.20       0.0  T
   2   -152.2333514 -0.761702E-11  0.106E-05    5.20    1106.3  T
   3   -152.2333514 -0.142109E-11  0.725E-06    5.20    1614.5  T
speedup  9.86
cpu  time for SCC    1.83 s
wall time for SCC    0.19 s

          eigenvalues
 #    :         116        117        118        119        120        121        122        123
 occ. :        2.000      2.000      2.000      2.000      2.000      2.000      2.000      2.000
 eps  :       -10.355    -10.324    -10.313    -10.214    -10.189    -10.189    -10.182    -10.137
 #    :         124        125        126        127        128        129        130        131
 occ. :        2.000      2.000      2.000      2.000      2.000      0.000      0.000      0.000
 eps  :       -10.137    -10.042    -10.001    -10.001     -9.962     -4.761     -4.577     -4.523
 #    :         132        133        134        135        136        137        138        139
 occ. :        0.000      0.000      0.000      0.000      0.000      0.000      0.000      0.000
 eps  :        -4.523     -4.429     -4.429     -4.376     -4.210     -0.045      0.124      0.142
 
 
 Mulliken/CM5 charges        n(s)   n(p)   n(d)
     1 C   0.06610  0.14669   1.078  2.855  0.000
     2 C   0.06610  0.14669   1.078  2.855  0.000
     3 C   0.06610  0.14669   1.078  2.855  0.000
     4 C   0.06610  0.14669   1.078  2.855  0.000
     5 C   0.06610  0.14669   1.078  2.855  0.000
     6 C   0.06610  0.14669   1.078  2.855  0.000
     7 C   0.06610  0.14669   1.078  2.855  0.000
     8 C   0.06610  0.14669   1.078  2.855  0.000
     9 N  -0.03707 -0.28288   1.129  3.908  0.000
    10 N  -0.03707 -0.28288   1.129  3.908  0.000
    11 N  -0.03707 -0.28288   1.129  3.908  0.000
    12 N  -0.03707 -0.28288   1.129  3.908  0.000
    13 N  -0.03707 -0.28288   1.129  3.908  0.000
    14 N  -0.03707 -0.28288   1.129  3.908  0.000
    15 N  -0.03707 -0.28288   1.129  3.908  0.000
    16 N  -0.03707 -0.28288   1.129  3.908  0.000
    17 N  -0.03707 -0.28288   1.129  3.908  0.000
    18 N  -0.03707 -0.28288   1.129  3.908  0.000
    19 N  -0.03707 -0.28288   1.129  3.908  0.000
    20 N  -0.03707 -0.28288   1.129  3.908  0.000
    21 N  -0.03707 -0.28288   1.129  3.908  0.000
    22 N  -0.03707 -0.28288   1.129  3.908  0.000
    23 N  -0.03707 -0.28288   1.129  3.908  0.000
    24 N  -0.03707 -0.28288   1.129  3.908  0.000
    25 C   0.23264  0.40360   1.055  2.713  0.000
    26 C   0.23264  0.40359   1.055  2.713  0.000
    27 C   0.23264  0.40360   1.055  2.713  0.000
    28 C   0.23264  0.40360   1.055  2.713  0.000
    29 C   0.23264  0.40360   1.055  2.713  0.000
    30 C   0.23264  0.40359   1.055  2.713  0.000
    31 C   0.23264  0.40360   1.055  2.713  0.000
    32 C   0.23264  0.40360   1.055  2.713  0.000
    33 O  -0.39896 -0.44194   1.725  4.674  0.000
    34 O  -0.39896 -0.44194   1.725  4.674  0.000
    35 O  -0.39896 -0.44194   1.725  4.674  0.000
    36 O  -0.39896 -0.44194   1.725  4.674  0.000
    37 O  -0.39896 -0.44194   1.725  4.674  0.000
    38 O  -0.39896 -0.44194   1.725  4.674  0.000
    39 O  -0.39896 -0.44194   1.725  4.674  0.000
    40 O  -0.39896 -0.44194   1.725  4.674  0.000
    41 C   0.03133  0.05707   1.072  2.897  0.000
    42 C   0.03133  0.05707   1.072  2.897  0.000
    43 C   0.03133  0.05707   1.072  2.897  0.000
    44 C   0.03133  0.05707   1.072  2.897  0.000
    45 C   0.03133  0.05707   1.072  2.897  0.000
    46 C   0.03133  0.05707   1.072  2.897  0.000
    47 C   0.03133  0.05707   1.072  2.897  0.000
    48 C   0.03133  0.05707   1.072  2.897  0.000
    49 H   0.03509  0.11144   0.965  0.000  0.000
    50 H   0.03509  0.11144   0.965  0.000  0.000
    51 H   0.03509  0.11144   0.965  0.000  0.000
    52 H   0.03509  0.11144   0.965  0.000  0.000
    53 H   0.03509  0.11144   0.965  0.000  0.000
    54 H   0.03509  0.11144   0.965  0.000  0.000
    55 H   0.03509  0.11144   0.965  0.000  0.000
    56 H   0.03509  0.11144   0.965  0.000  0.000
    57 H   0.07417  0.16280   0.926  0.000  0.000
    58 H   0.07417  0.16280   0.926  0.000  0.000
    59 H   0.07417  0.16280   0.926  0.000  0.000
    60 H   0.07417  0.16279   0.926  0.000  0.000
    61 H   0.07417  0.16280   0.926  0.000  0.000
    62 H   0.07417  0.16280   0.926  0.000  0.000
    63 H   0.07417  0.16280   0.926  0.000  0.000
    64 H   0.07417  0.16279   0.926  0.000  0.000
    65 H   0.02489  0.10278   0.975  0.000  0.000
    66 H   0.02489  0.10278   0.975  0.000  0.000
    67 H   0.02489  0.10278   0.975  0.000  0.000
    68 H   0.02489  0.10278   0.975  0.000  0.000
    69 H   0.02489  0.10278   0.975  0.000  0.000
    70 H   0.02489  0.10278   0.975  0.000  0.000
    71 H   0.02489  0.10278   0.975  0.000  0.000
    72 H   0.02489  0.10278   0.975  0.000  0.000
    73 RN  0.07106  0.18662   2.000  5.980 -0.051
 
 Wiberg/Mayer (AO) data. WBOs > 0.1 written file <wbo>
 largest (>0.05) Wiberg bond orders for each atom
           total WBO             WBO to atom ...
     1  C   3.978    N   17 0.997    N   21 0.997    C    5 0.959    H   69 0.948
     2  C   3.978    N   22 0.997    N   18 0.997    C    6 0.959    H   70 0.948
     3  C   3.978    N   23 0.997    N   19 0.997    C    7 0.959    H   71 0.948
     4  C   3.978    N   20 0.997    N   24 0.997    C    8 0.959    H   72 0.948
     5  C   3.978    N    9 0.997    N   13 0.997    C    1 0.959    H   65 0.948
     6  C   3.978    N   10 0.997    N   14 0.997    C    2 0.959    H   66 0.948
     7  C   3.978    N   11 0.997    N   15 0.997    C    3 0.959    H   67 0.948
     8  C   3.978    N   16 0.997    N   12 0.997    C    4 0.959    H   68 0.948
     9  N   3.420    C   25 1.101    C   41 0.999    C    5 0.997    O   33 0.148
    10  N   3.420    C   26 1.101    C   42 0.999    C    6 0.997    O   34 0.148
    11  N   3.420    C   27 1.101    C   43 0.999    C    7 0.997    O   35 0.148
    12  N   3.420    C   28 1.101    C   44 0.999    C    8 0.997    O   36 0.148
    13  N   3.420    C   29 1.101    C   45 0.999    C    5 0.997    O   37 0.148
    14  N   3.420    C   30 1.101    C   46 0.999    C    6 0.997    O   38 0.148
    15  N   3.420    C   31 1.101    C   47 0.999    C    7 0.997    O   39 0.148
    16  N   3.420    C   32 1.101    C   48 0.999    C    8 0.997    O   40 0.148
    17  N   3.420    C   25 1.101    C   42 0.999    C    1 0.997    O   33 0.148
    18  N   3.420    C   26 1.101    C   43 0.999    C    2 0.997    O   34 0.148
    19  N   3.420    C   27 1.101    C   48 0.999    C    3 0.997    O   35 0.148
    20  N   3.420    C   28 1.101    C   45 0.999    C    4 0.997    O   36 0.148
    21  N   3.420    C   29 1.101    C   46 0.999    C    1 0.997    O   37 0.148
    22  N   3.420    C   30 1.101    C   47 0.999    C    2 0.997    O   38 0.148
    23  N   3.420    C   31 1.101    C   44 0.999    C    3 0.997    O   39 0.148
    24  N   3.420    C   32 1.101    C   41 0.999    C    4 0.997    O   40 0.148
    25  C   3.966    O   33 1.705    N   17 1.101    N    9 1.101
    26  C   3.966    O   34 1.705    N   10 1.101    N   18 1.101
    27  C   3.966    O   35 1.705    N   19 1.101    N   11 1.101
    28  C   3.966    O   36 1.705    N   20 1.101    N   12 1.101
    29  C   3.966    O   37 1.705    N   21 1.101    N   13 1.101
    30  C   3.966    O   38 1.705    N   14 1.101    N   22 1.101
    31  C   3.966    O   39 1.705    N   23 1.101    N   15 1.101
    32  C   3.966    O   40 1.705    N   24 1.101    N   16 1.101
    33  O   2.062    C   25 1.705    N   17 0.148    N    9 0.148
    34  O   2.062    C   26 1.705    N   10 0.148    N   18 0.148
    35  O   2.062    C   27 1.705    N   11 0.148    N   19 0.148
    36  O   2.062    C   28 1.705    N   20 0.148    N   12 0.148
    37  O   2.062    C   29 1.705    N   21 0.148    N   13 0.148
    38  O   2.062    C   30 1.705    N   14 0.148    N   22 0.148
    39  O   2.062    C   31 1.705    N   15 0.148    N   23 0.148
    40  O   2.062    C   32 1.705    N   24 0.148    N   16 0.148
    41  C   3.969    N    9 0.999    N   24 0.999    H   49 0.964    H   57 0.957
    42  C   3.969    N   17 0.999    N   10 0.999    H   50 0.964    H   58 0.957
    43  C   3.969    N   18 0.999    N   11 0.999    H   51 0.964    H   59 0.957
    44  C   3.969    N   12 0.999    N   23 0.999    H   52 0.964    H   60 0.957
    45  C   3.969    N   13 0.999    N   20 0.999    H   53 0.964    H   61 0.957
    46  C   3.969    N   21 0.999    N   14 0.999    H   54 0.964    H   62 0.957
    47  C   3.969    N   22 0.999    N   15 0.999    H   55 0.964    H   63 0.957
    48  C   3.969    N   16 0.999    N   19 0.999    H   56 0.964    H   64 0.957
    49  H   0.998    C   41 0.964
    50  H   0.998    C   42 0.964
    51  H   0.998    C   43 0.964
    52  H   0.998    C   44 0.964
    53  H   0.998    C   45 0.964
    54  H   0.998    C   46 0.964
    55  H   0.998    C   47 0.964
    56  H   0.998    C   48 0.964
    57  H   0.994    C   41 0.957
    58  H   0.994    C   42 0.957
    59  H   0.994    C   43 0.957
    60  H   0.994    C   44 0.957
    61  H   0.994    C   45 0.957
    62  H   0.994    C   46 0.957
    63  H   0.994    C   47 0.957
    64  H   0.994    C   48 0.957
    65  H   0.999    C    5 0.948
    66  H   0.999    C    6 0.948
    67  H   0.999    C    7 0.948
    68  H   0.999    C    8 0.948
    69  H   0.999    C    1 0.948
    70  H   0.999    C    2 0.948
    71  H   0.999    C    3 0.948
    72  H   0.999    C    4 0.948
    73  RN -0.064
 density
 
 cube file module (SG, 7/16)
 cube_pthr     :   0.005
 cube_step     :   0.400
 non-zero P (%):  34.275   nmat:    8792
 Grid Boundaries (x y z) :
   11.7814186153213        11.7814325394109        8.95283690717582     
  -11.7814026584724       -11.7814225789052       -8.95283692446670     
 Total # of points                156645
 writing density.cub
 N    (numint) : ******
cpu  time for cube   53.14 s
wall time for cube   51.77 s
 
molecular dipole:
                 x           y           z       tot (Debye)
 q only:       -0.000      -0.000      -0.000
   full:        0.000       0.000      -0.000       0.000
molecular quadrupole (traceless):
                xx          xy          yy          xz          yz          zz
 q only:       50.216       0.000      50.215      -0.000      -0.000    -100.431
  q+dip:       62.226       0.000      62.225      -0.000      -0.000    -124.450
   full:       63.665       0.000      63.664      -0.000      -0.000    -127.329
 SCC converged in                      3  cycles
 
SCC energy    :    -152.2333514
rep           :       1.5054014
ES            :      -0.0005053
AES           :       0.0148928
disp          :      -0.1188267
XB            :       0.0000000
fix           :       0.0000000
total E       :    -150.8467767
atomizationE  :      19.7042700    12364.62
(atE without considerung molecular charge,
 total energy contains solvation terms)
H-L gap (eV)  :          5.2014
 !!!!!!!!!!!!!!!!!!!!!!!!!!!!!!!!!!!
 ! Note: the input coordinates are !
 ! NOT overwritten. The optimized  !
 ! ones are on file <xtbopt.coord> !
 ! (or on <xtbopt.xyz> if it was a !
 ! xyz file)                       !
 !!!!!!!!!!!!!!!!!!!!!!!!!!!!!!!!!!!
 
speedup  1.56
cpu  time for all    2 m 53.1 s
wall time for all    1 m 50.7 s
