 
        ______________________________________
       |                                      |
       |           ==================         |
       |                 x T B                |
       |           ==================         |
       |               S. Grimme              |
       |        Universitaet Bonn, MCTC       |
       |         2015-18, Version 5.0         |
       |      Sat Jan 20 11:00:33 CET 2018    |
       |______________________________________|
 
        This code comes without any warranty
        for non-commercial, academia use only.
        Cite GFN-xTB work as:
        S. Grimme, C. Bannwarth, P. Shushkov
        JCTC, 13 (2017) 1989-2009
        for GFN2:
        C. Bannwarth, S. Ehlert, S. Grimme
        to be published.
        sTDA-xTB:
        S. Grimme  &  C. Bannwarth, JCP 145 (2016) 054103
        in the mass-spec context additionally:
        V. Asgeirsson, C.Bauer, S. Grimme, Chem. Sci. 8 (2017) 4879
 
        with help from
        P. Shushkov, G. Brandenburg, S. Dohm, J. Pisarek,
        F. März, M. Checinski, S. Ehrlich, S. Spicher, 
        P. Pracht, E. Caldeweyher, S. Ehlert, and C. Bannwarth.
 
        usage        :
        xtb <coord_file> [options]
        where <coord_file> is a valid file of TM)
        (*coord, Bohr) or xmol (*xyz, Angstroem)
        format.

        options:
        -chrg <int>   : molecular charge
        -uhf  <int>   : # of unpaired electrons(=2*S)
        -nox          : skip second, extended part in sTDA-xTB
        -pop          : do population analysis
                      : (default for -nox)
        -mowr <real>  : cut MO write above (def.3 Eh)
        -molden       : write formatted molden file
        -parx <file>  : read parameters for sTDA-xTB
                        calc (def:~/.param_stda2.xtb)
        -parv <file>  : read parameters for vTB part in
                        sTDA-xTB (def: ~/.param_stda1.xtb)
        -xtemp <real> : el. temp for xTB (def. 0 K)
        -etemp <real> : el. temp for GFN (def. 300 K)
        -fod          : do a xTB calc. of the FOD
                        and write molden.input file 
                        with appropriate occupations
                        for plotting. Def. T=12500 K
 
        -gfn          : use GFN-xTB
        -grad         : GFN-xTB gradient
        -acc <real>   : GFN-xTB accuracy (def. 1.0)
        -opt [level]  : optimize at GFN-xTB
                      : level=crude,vloose,loose,
                      :       tight,vtight
        -hess         : compute Hessian at GFN-xTB
        -ohess        : optimize and compute Hessian
        -omd          : optimize and do MD
        -siman        : conformational search
        -screen       : opt. loop over ensemble
        -gmd          : annealed MD for GMD procedure
        -modef        : vib mode following
        -gbsa [string1] [string2]
                        use GBSA implicit solvent
                        for solvent [string1] and
                        solvation state [string2]=
                        reference, bar1M (default=1M)
        additional GFN/opt/MD/siman options read from
        $XTBHOME/.xtbrc or $set in coordinate file
 
       spin and charge state information can be on:
       <.CHRG> (charge) and <.UHF> (=nalpha-nbeta)
       -uhf and -chrg override the file info.
       useful machine settings:
       setenv MKL_NUM_THREADS <NCORE_ON_YOUR_MACHINE>
       setenv OMP_STACKSIZE 500m
       limit stacksize unlimited
 
       total energies in Eh, gaps/HL energies in eV
       please read REVISION and HOWTO files carefully
 =============================
  # OMP threads =                     1
 =============================
 
 xtbhome directory:/Applications/xtb/
 
 argument                      1 :-opt
 argument                      2 :tight
 
 number of atoms            :    73
 number of electrons        :   256
 charge                     :  0
 spin                       : 0.0
 first test random number   :  0.2202
 
 
KAB for pair M(3d)-M(3d) :  1.1000
KAB for pair M(4d)-M(4d) :  1.2000
KAB for pair M(5d)-M(5d) :  1.2000
 -----------------------------------------
  G F N (Geometry, Frequency, Non-covalent)
        parametrization, version                     2
 /Applications/xtb/.param_gfn2.xtb
 -----------------------------------------
      method parameters     
 k(s)        :  1.8500
 k(p)        :  2.2500
 k(d)        :  2.0000
 k(f)        :  0.0000
 alphaj      :  1.0000
 kEN (H0ij)  : -2.3620
 D3 a1       :  0.6900
 D3 a2       :  4.0530
 D3 s8       :  2.0000
 D3atm       :  1.0000
 AESdamp     :  5.5000
 AESrad      :  1.9230
 expscalexp  : -0.2500
 
     -------------------------
     ! NO SOLVENT MODEL USED !
     -------------------------
 
 doing EN charges ...
 sum q : -0.3108624D-14
 point charge moment (au)
     X       Y       Z   
   0.0000   0.0000   0.0000  total (Debye):    0.000
 
            Z      q(EN)   CN      Cart. coordinates
     1  C   4.0    0.21    4.31    -6.08269    -3.09463     0.00000
     2  C   4.0    0.21    4.31     3.09463    -6.08269     0.00000
     3  C   4.0    0.21    4.31     6.08269     3.09463     0.00000
     4  C   4.0    0.21    4.31    -3.09463     6.08269     0.00000
     5  C   4.0    0.21    4.31    -6.82025    -0.19555     0.00000
     6  C   4.0    0.21    4.31     0.19555    -6.82025     0.00000
     7  C   4.0    0.21    4.31     6.82025     0.19555     0.00000
     8  C   4.0    0.21    4.31    -0.19555     6.82025     0.00000
     9  N   5.0   -0.19    3.25    -5.77381     0.72424    -2.35579
    10  N   5.0   -0.19    3.25    -0.72424    -5.77381    -2.35579
    11  N   5.0   -0.19    3.25     5.77381    -0.72424    -2.35579
    12  N   5.0   -0.19    3.25     0.72424     5.77381     2.35579
    13  N   5.0   -0.19    3.25    -5.77381     0.72424     2.35579
    14  N   5.0   -0.19    3.25    -0.72424    -5.77381     2.35579
    15  N   5.0   -0.19    3.25     5.77381    -0.72424     2.35579
    16  N   5.0   -0.19    3.25     0.72424     5.77381    -2.35579
    17  N   5.0   -0.19    3.25    -4.72456    -3.40249    -2.35643
    18  N   5.0   -0.19    3.25     3.40249    -4.72456    -2.35643
    19  N   5.0   -0.19    3.25     4.72456     3.40249    -2.35643
    20  N   5.0   -0.19    3.25    -3.40249     4.72456     2.35643
    21  N   5.0   -0.19    3.25    -4.72456    -3.40249     2.35643
    22  N   5.0   -0.19    3.25     3.40249    -4.72456     2.35643
    23  N   5.0   -0.19    3.25     4.72456     3.40249     2.35643
    24  N   5.0   -0.19    3.25    -3.40249     4.72456    -2.35643
    25  C   4.0    0.44    3.31    -4.75784    -1.21396    -3.83786
    26  C   4.0    0.44    3.31     1.21396    -4.75784    -3.83786
    27  C   4.0    0.44    3.31     4.75784     1.21396    -3.83786
    28  C   4.0    0.44    3.31    -1.21396     4.75784     3.83786
    29  C   4.0    0.44    3.31    -4.75784    -1.21396     3.83786
    30  C   4.0    0.44    3.31     1.21396    -4.75784     3.83786
    31  C   4.0    0.44    3.31     4.75784     1.21396     3.83786
    32  C   4.0    0.44    3.31    -1.21396     4.75784    -3.83786
    33  O   6.0   -0.34    1.06    -4.07508    -1.03971    -6.00893
    34  O   6.0   -0.34    1.06     1.03971    -4.07508    -6.00893
    35  O   6.0   -0.34    1.06     4.07508     1.03971    -6.00893
    36  O   6.0   -0.34    1.06    -1.03971     4.07508     6.00893
    37  O   6.0   -0.34    1.06    -4.07508    -1.03971     6.00893
    38  O   6.0   -0.34    1.06     1.03971    -4.07508     6.00893
    39  O   6.0   -0.34    1.06     4.07508     1.03971     6.00893
    40  O   6.0   -0.34    1.06    -1.03971     4.07508    -6.00893
    41  C   4.0    0.24    4.14    -5.63987     3.34748    -3.16200
    42  C   4.0    0.24    4.14    -3.34748    -5.63987    -3.16200
    43  C   4.0    0.24    4.14     5.63987    -3.34748    -3.16200
    44  C   4.0    0.24    4.14     3.34748     5.63987     3.16200
    45  C   4.0    0.24    4.14    -5.63987     3.34748     3.16200
    46  C   4.0    0.24    4.14    -3.34748    -5.63987     3.16200
    47  C   4.0    0.24    4.14     5.63987    -3.34748     3.16200
    48  C   4.0    0.24    4.14     3.34748     5.63987    -3.16200
    49  H   1.0   -0.05    1.00    -7.32622     4.34750    -2.49395
    50  H   1.0   -0.05    1.00    -4.34750    -7.32622    -2.49395
    51  H   1.0   -0.05    1.00     7.32622    -4.34750    -2.49395
    52  H   1.0   -0.05    1.00     4.34750     7.32622     2.49395
    53  H   1.0   -0.05    1.00    -7.32622     4.34750     2.49395
    54  H   1.0   -0.05    1.00    -4.34750    -7.32622     2.49395
    55  H   1.0   -0.05    1.00     7.32622    -4.34750     2.49395
    56  H   1.0   -0.05    1.00     4.34750     7.32622    -2.49395
    57  H   1.0   -0.05    1.01    -5.60377     3.32476    -5.22727
    58  H   1.0   -0.05    1.01    -3.32476    -5.60377    -5.22727
    59  H   1.0   -0.05    1.01     5.60377    -3.32476    -5.22727
    60  H   1.0   -0.05    1.01     3.32476     5.60377     5.22727
    61  H   1.0   -0.05    1.01    -5.60377     3.32476     5.22727
    62  H   1.0   -0.05    1.01    -3.32476    -5.60377     5.22727
    63  H   1.0   -0.05    1.01     5.60377    -3.32476     5.22727
    64  H   1.0   -0.05    1.01     3.32476     5.60377    -5.22727
    65  H   1.0   -0.05    1.00    -8.88069     0.08464     0.00000
    66  H   1.0   -0.05    1.00    -0.08464    -8.88069     0.00000
    67  H   1.0   -0.05    1.00     8.88069    -0.08464     0.00000
    68  H   1.0   -0.05    1.00     0.08464     8.88069     0.00000
    69  H   1.0   -0.05    1.00    -7.75895    -4.32494     0.00000
    70  H   1.0   -0.05    1.00     4.32494    -7.75895     0.00000
    71  H   1.0   -0.05    1.00     7.75895     4.32494     0.00000
    72  H   1.0   -0.05    1.00    -4.32494     7.75895     0.00000
    73  XE  8.0   -0.06    1.55     0.00000     0.00000     0.00000
 
  Z AO/shell   Hii/eV     exponent
  1     Sat Jan 20 17:55:17 CET 2018    EN: 2.200 GAM: 0.531  GM3:-0.4370
     1s    -10.248275    1.266496
  6     Sat Jan 20 17:55:17 CET 2018    EN: 2.550 GAM: 0.417  GM3:-0.0654
     2s    -15.292509    2.030071
     2p    -10.408465    1.801676
  7     Sat Jan 20 17:55:17 CET 2018    EN: 3.040 GAM: 0.444  GM3:-0.1301
     2s    -16.687725    2.226550
     2p    -13.175143    1.981921
  8     Sat Jan 20 17:55:17 CET 2018    EN: 3.440 GAM: 0.468  GM3: 0.0937
     2s    -20.924998    2.442614
     2p    -15.243501    2.233841
 54     Sun Jan 21 08:41:22 CET 2018    EN: 2.600 GAM: 0.209  GM3:-0.0069
     5s    -20.460375    2.867224
     5p    -10.513611    2.336111
     5d     -0.852023    2.008144
 no old-style atom pair restraing (fixing) potential
 
 molecular fragmentation (1/2 indicates fragments):
1111111111111111111111111111111111111111111111111111111111111111111111112
# atoms in fragment 1/2:    72     1
 fragment masses (1/2) :      664.56      131.30
CMA distance (Bohr)    :   0.000
constraining FC (au)   :  0.0500
 
             =======================================
             |                                     |
             |        S C C  calculation           |
             |                                     |
             =======================================
 #proc     :                      1
 Ncao      :                    226
 Nao       :                    225
 Nel       :                    256
 T(el)     :   300.0
 intcut    :    25.0
 scfconv   :  0.100E-05
   qconv   :  0.200E-04
 intneglect:  0.100E-07
 broydamp  :      0.400
 Nshell    :                    123
  q data taken from xtbrestart
  CAMM data taken from xtbrestart
 iter      E             dE          RMSdq      gap      omega  full diag
   1   -152.2246432 -0.152225E+03  0.232E-01    4.77       0.0  T
   2   -152.2250044 -0.361174E-03  0.136E-01    4.77       1.0  T
   3   -152.2249702  0.342587E-04  0.616E-02    4.77       1.0  T
   4   -152.2250861 -0.115995E-03  0.115E-02    4.77       1.0  T
   5   -152.2250885 -0.230833E-05  0.638E-03    4.77       1.8  T
   6   -152.2250890 -0.587657E-06  0.293E-03    4.77       4.0  T
   7   -152.2250893 -0.215190E-06  0.103E-03    4.77      11.4  T
   8   -152.2250893 -0.167955E-07  0.245E-04    4.77      47.7  T
   9   -152.2250893 -0.478764E-09  0.670E-05    4.77     174.6  T
  10   -152.2250893 -0.513296E-10  0.253E-05    4.77     461.8  T
speedup  7.13
cpu  time for SCC    3.26 s
wall time for SCC    0.46 s

          eigenvalues
 #    :         116        117        118        119        120        121        122        123
 occ. :        2.000      2.000      2.000      2.000      2.000      2.000      2.000      2.000
 eps  :       -10.456    -10.429    -10.257    -10.257    -10.251    -10.214    -10.214    -10.192
 #    :         124        125        126        127        128        129        130        131
 occ. :        2.000      2.000      2.000      2.000      2.000      0.000      0.000      0.000
 eps  :       -10.141    -10.125    -10.031     -9.848     -9.848     -5.076     -4.901     -4.827
 #    :         132        133        134        135        136        137        138        139
 occ. :        0.000      0.000      0.000      0.000      0.000      0.000      0.000      0.000
 eps  :        -4.827     -4.773     -4.773     -4.658     -4.559     -0.681     -0.604     -0.543
 
 
 Mulliken/CM5 charges        n(s)   n(p)   n(d)
     1 C   0.06661  0.14222   1.084  2.850  0.000
     2 C   0.06661  0.14222   1.084  2.850  0.000
     3 C   0.06661  0.14222   1.084  2.850  0.000
     4 C   0.06661  0.14222   1.084  2.850  0.000
     5 C   0.06659  0.14223   1.084  2.850  0.000
     6 C   0.06659  0.14223   1.084  2.850  0.000
     7 C   0.06659  0.14223   1.084  2.850  0.000
     8 C   0.06659  0.14223   1.084  2.850  0.000
     9 N  -0.03916 -0.27340   1.136  3.903  0.000
    10 N  -0.03916 -0.27340   1.136  3.903  0.000
    11 N  -0.03916 -0.27340   1.136  3.903  0.000
    12 N  -0.03916 -0.27340   1.136  3.903  0.000
    13 N  -0.03916 -0.27340   1.136  3.903  0.000
    14 N  -0.03916 -0.27340   1.136  3.903  0.000
    15 N  -0.03916 -0.27340   1.136  3.903  0.000
    16 N  -0.03916 -0.27340   1.136  3.903  0.000
    17 N  -0.03919 -0.27335   1.136  3.903  0.000
    18 N  -0.03919 -0.27335   1.136  3.903  0.000
    19 N  -0.03919 -0.27335   1.136  3.903  0.000
    20 N  -0.03919 -0.27335   1.136  3.903  0.000
    21 N  -0.03919 -0.27335   1.136  3.903  0.000
    22 N  -0.03919 -0.27335   1.136  3.903  0.000
    23 N  -0.03919 -0.27335   1.136  3.903  0.000
    24 N  -0.03919 -0.27335   1.136  3.903  0.000
    25 C   0.23145  0.39573   1.063  2.706  0.000
    26 C   0.23145  0.39573   1.063  2.706  0.000
    27 C   0.23145  0.39573   1.063  2.706  0.000
    28 C   0.23145  0.39573   1.063  2.706  0.000
    29 C   0.23145  0.39573   1.063  2.706  0.000
    30 C   0.23145  0.39573   1.063  2.706  0.000
    31 C   0.23145  0.39573   1.063  2.706  0.000
    32 C   0.23145  0.39573   1.063  2.706  0.000
    33 O  -0.39191 -0.43235   1.733  4.659  0.000
    34 O  -0.39191 -0.43235   1.733  4.659  0.000
    35 O  -0.39191 -0.43235   1.733  4.659  0.000
    36 O  -0.39191 -0.43235   1.733  4.659  0.000
    37 O  -0.39191 -0.43235   1.733  4.659  0.000
    38 O  -0.39191 -0.43235   1.733  4.659  0.000
    39 O  -0.39191 -0.43235   1.733  4.659  0.000
    40 O  -0.39191 -0.43235   1.733  4.659  0.000
    41 C   0.03372  0.05384   1.074  2.892  0.000
    42 C   0.03372  0.05384   1.074  2.892  0.000
    43 C   0.03372  0.05384   1.074  2.892  0.000
    44 C   0.03372  0.05384   1.074  2.892  0.000
    45 C   0.03372  0.05384   1.074  2.892  0.000
    46 C   0.03372  0.05384   1.074  2.892  0.000
    47 C   0.03372  0.05384   1.074  2.892  0.000
    48 C   0.03372  0.05384   1.074  2.892  0.000
    49 H   0.03813  0.11470   0.962  0.000  0.000
    50 H   0.03813  0.11470   0.962  0.000  0.000
    51 H   0.03813  0.11470   0.962  0.000  0.000
    52 H   0.03813  0.11470   0.962  0.000  0.000
    53 H   0.03813  0.11470   0.962  0.000  0.000
    54 H   0.03813  0.11470   0.962  0.000  0.000
    55 H   0.03813  0.11470   0.962  0.000  0.000
    56 H   0.03813  0.11470   0.962  0.000  0.000
    57 H   0.07554  0.16196   0.924  0.000  0.000
    58 H   0.07554  0.16196   0.924  0.000  0.000
    59 H   0.07554  0.16196   0.924  0.000  0.000
    60 H   0.07554  0.16196   0.924  0.000  0.000
    61 H   0.07554  0.16196   0.924  0.000  0.000
    62 H   0.07554  0.16196   0.924  0.000  0.000
    63 H   0.07554  0.16196   0.924  0.000  0.000
    64 H   0.07554  0.16196   0.924  0.000  0.000
    65 H   0.03027  0.10898   0.970  0.000  0.000
    66 H   0.03027  0.10898   0.970  0.000  0.000
    67 H   0.03027  0.10898   0.970  0.000  0.000
    68 H   0.03027  0.10898   0.970  0.000  0.000
    69 H   0.03037  0.10909   0.970  0.000  0.000
    70 H   0.03037  0.10909   0.970  0.000  0.000
    71 H   0.03037  0.10909   0.970  0.000  0.000
    72 H   0.03037  0.10909   0.970  0.000  0.000
    73 XE -0.04409  0.01286   2.000  5.974  0.070
 
 Wiberg/Mayer (AO) data. WBOs > 0.1 written file <wbo>
 largest (>0.05) Wiberg bond orders for each atom
           total WBO             WBO to atom ...
     1  C   3.975    N   21 0.995    N   17 0.995    C    5 0.951    H   69 0.950
     2  C   3.975    N   22 0.995    N   18 0.995    C    6 0.951    H   70 0.950
     3  C   3.975    N   23 0.995    N   19 0.995    C    7 0.951    H   71 0.950
     4  C   3.975    N   20 0.995    N   24 0.995    C    8 0.951    H   72 0.950
     5  C   3.975    N   13 0.995    N    9 0.995    C    1 0.951    H   65 0.950
     6  C   3.975    N   14 0.995    N   10 0.995    C    2 0.951    H   66 0.950
     7  C   3.975    N   15 0.995    N   11 0.995    C    3 0.951    H   67 0.950
     8  C   3.975    N   12 0.995    N   16 0.995    C    4 0.951    H   68 0.950
     9  N   3.414    C   25 1.092    C    5 0.995    C   41 0.995    O   33 0.149
    10  N   3.414    C   26 1.092    C    6 0.995    C   42 0.995    O   34 0.149
    11  N   3.414    C   27 1.092    C    7 0.995    C   43 0.995    O   35 0.149
    12  N   3.414    C   28 1.092    C    8 0.995    C   44 0.995    O   36 0.149
    13  N   3.414    C   29 1.092    C    5 0.995    C   45 0.995    O   37 0.149
    14  N   3.414    C   30 1.092    C    6 0.995    C   46 0.995    O   38 0.149
    15  N   3.414    C   31 1.092    C    7 0.995    C   47 0.995    O   39 0.149
    16  N   3.414    C   32 1.092    C    8 0.995    C   48 0.995    O   40 0.149
    17  N   3.414    C   25 1.092    C    1 0.995    C   42 0.995    O   33 0.149
    18  N   3.414    C   26 1.092    C    2 0.995    C   43 0.995    O   34 0.149
    19  N   3.414    C   27 1.092    C    3 0.995    C   48 0.995    O   35 0.149
    20  N   3.414    C   28 1.092    C    4 0.995    C   45 0.995    O   36 0.149
    21  N   3.414    C   29 1.092    C    1 0.995    C   46 0.995    O   37 0.149
    22  N   3.414    C   30 1.092    C    2 0.995    C   47 0.995    O   38 0.149
    23  N   3.414    C   31 1.092    C    3 0.995    C   44 0.995    O   39 0.149
    24  N   3.414    C   32 1.092    C    4 0.995    C   41 0.995    O   40 0.149
    25  C   3.963    O   33 1.711    N    9 1.092    N   17 1.092
    26  C   3.963    O   34 1.711    N   10 1.092    N   18 1.092
    27  C   3.963    O   35 1.711    N   11 1.092    N   19 1.092
    28  C   3.963    O   36 1.711    N   12 1.092    N   20 1.092
    29  C   3.963    O   37 1.711    N   13 1.092    N   21 1.092
    30  C   3.963    O   38 1.711    N   14 1.092    N   22 1.092
    31  C   3.963    O   39 1.711    N   15 1.092    N   23 1.092
    32  C   3.963    O   40 1.711    N   16 1.092    N   24 1.092
    33  O   2.067    C   25 1.711    N    9 0.149    N   17 0.149
    34  O   2.067    C   26 1.711    N   10 0.149    N   18 0.149
    35  O   2.067    C   27 1.711    N   11 0.149    N   19 0.149
    36  O   2.067    C   28 1.711    N   12 0.149    N   20 0.149
    37  O   2.067    C   29 1.711    N   13 0.149    N   21 0.149
    38  O   2.067    C   30 1.711    N   14 0.149    N   22 0.149
    39  O   2.067    C   31 1.711    N   15 0.149    N   23 0.149
    40  O   2.067    C   32 1.711    N   16 0.149    N   24 0.149
    41  C   3.967    N    9 0.995    N   24 0.995    H   49 0.965    H   57 0.959
    42  C   3.967    N   10 0.995    N   17 0.995    H   50 0.965    H   58 0.959
    43  C   3.967    N   11 0.995    N   18 0.995    H   51 0.965    H   59 0.959
    44  C   3.967    N   12 0.995    N   23 0.995    H   52 0.965    H   60 0.959
    45  C   3.967    N   13 0.995    N   20 0.995    H   53 0.965    H   61 0.959
    46  C   3.967    N   14 0.995    N   21 0.995    H   54 0.965    H   62 0.959
    47  C   3.967    N   15 0.995    N   22 0.995    H   55 0.965    H   63 0.959
    48  C   3.967    N   16 0.995    N   19 0.995    H   56 0.965    H   64 0.959
    49  H   0.998    C   41 0.965
    50  H   0.998    C   42 0.965
    51  H   0.998    C   43 0.965
    52  H   0.998    C   44 0.965
    53  H   0.998    C   45 0.965
    54  H   0.998    C   46 0.965
    55  H   0.998    C   47 0.965
    56  H   0.998    C   48 0.965
    57  H   0.994    C   41 0.959
    58  H   0.994    C   42 0.959
    59  H   0.994    C   43 0.959
    60  H   0.994    C   44 0.959
    61  H   0.994    C   45 0.959
    62  H   0.994    C   46 0.959
    63  H   0.994    C   47 0.959
    64  H   0.994    C   48 0.959
    65  H   0.999    C    5 0.950
    66  H   0.999    C    6 0.950
    67  H   0.999    C    7 0.950
    68  H   0.999    C    8 0.950
    69  H   0.999    C    1 0.950
    70  H   0.999    C    2 0.950
    71  H   0.999    C    3 0.950
    72  H   0.999    C    4 0.950
    73  XE  0.192
 density
 
 cube file module (SG, 7/16)
 cube_pthr     :   0.005
 cube_step     :   0.400
 non-zero P (%):  32.373   nmat:    8304
 Grid Boundaries (x y z) :
   11.8806915096843        11.8806915096843        9.00893167631580     
  -11.8806915096843       -11.8806915096843       -9.00893167631580     
 Total # of points                165600
 writing density.cub
 N    (numint) : ******
cpu  time for cube   43.77 s
wall time for cube   42.25 s
 
molecular dipole:
                 x           y           z       tot (Debye)
 q only:       -0.000       0.000      -0.000
   full:       -0.000       0.000      -0.000       0.000
molecular quadrupole (traceless):
                xx          xy          yy          xz          yz          zz
 q only:       51.978       0.000      51.978       0.000       0.000    -103.956
  q+dip:       62.745       0.000      62.745       0.000       0.000    -125.491
   full:       63.682       0.000      63.682       0.000       0.000    -127.364
 SCC converged in                     10  cycles
 
SCC energy    :    -152.2250893
rep           :       1.3944143
ES            :       0.0031343
AES           :       0.0155865
disp          :      -0.1164255
XB            :       0.0000000
fix           :       0.0000000
total E       :    -150.9471005
atomizationE  :      19.6560094    12334.33
(atE without considerung molecular charge,
 total energy contains solvation terms)
H-L gap (eV)  :          4.7726
 
             =======================================
             |                                     |
             |    Approximate Normal Coordinate    |
             |   Rational Function Optimization    |
             |                                     |
             =======================================
Ref. for RF algo: F.Eckert, P.Pulay, H.-J.Werner
                  J.Comput.Chem. 18 (1997) 1473.
ANC idea implemented by S. Grimme in the 2000ers (unpublished)
restraining potential by S. Ehrlich.
dumping coords to <xtbopt.coord> and <xtbopt.log
 optlevel                         1
 Maxcycle                       365
 Maxmicro                        20
 Econv         1.000000000000000E-006
 Gconv         8.000000000000000E-004
 Maxdispl       1.00000000000000     
 Hlow          4.000000000000000E-003
 S6             20.0000000000000     
 Nvar                        213

generating ANC from model Hessian ...
 Shifting diagonal of input Hessian by   1.458300120106753E-002
 Lowest  eigenvalues of input Hessian
    0.004000    0.005981    0.005981   -0.000000   -0.000000   -0.000000
    0.000000    0.000000    0.000000    0.017418    0.017548    0.018196
    0.018605    0.023021    0.023021    0.024826    0.026921    0.027164
 Highest eigenvalues
    2.451413    2.452274    2.455287    2.456520    2.456520    2.460713
 
cpu  time for ANC gen    1.98 s
wall time for ANC gen    0.36 s
................................................................................
.............................. CYCLE    1 ......................................
................................................................................
  q data taken from xtbrestart
  CAMM data taken from xtbrestart
   1   -152.2250893 -0.152225E+03  0.755E-06    4.77       0.0  T
   2   -152.2250893 -0.170530E-12  0.443E-06    4.77    2642.2  T
   3   -152.2250893 -0.710543E-12  0.272E-06    4.77    4299.0  T
speedup  5.34
cpu  time for SCC    0.94 s
wall time for SCC    0.18 s
speedup  9.34
cpu  time for grad    1.54 s
wall time for grad    0.17 s
 E :   -150.94710048  G :  0.092819    pred/act E change:  0.000D+00 -0.901D-11
Maxdispl :   0.1857   ||displ|| :   0.3748   Lambda : -0.207D-01
Largest |displ|/coords:  0.1857 (  71)  0.1661 (  49)  0.1430 (  11)
................................................................................
.............................. CYCLE    2 ......................................
................................................................................
   1   -152.2945834 -0.152295E+03  0.177E-01    4.91       0.0  T
   2   -152.2947302 -0.146806E-03  0.101E-01    4.88       1.0  T
   3   -152.2946658  0.644191E-04  0.458E-02    4.89       1.0  T
   4   -152.2947796 -0.113820E-03  0.790E-03    4.88       1.5  T
   5   -152.2947806 -0.961970E-06  0.390E-03    4.88       3.0  T
   6   -152.2947808 -0.178228E-06  0.164E-03    4.88       7.2  T
   7   -152.2947808 -0.448078E-07  0.607E-04    4.88      19.3  T
   8   -152.2947808 -0.691355E-08  0.191E-04    4.88      61.2  T
speedup  8.56
cpu  time for SCC    3.40 s
wall time for SCC    0.40 s
speedup  9.54
cpu  time for grad    1.93 s
wall time for grad    0.20 s
 E :   -150.96163705  G :  0.031711    pred/act E change:  0.000D+00 -0.145D-01
Maxdispl :   0.1643   ||displ|| :   0.3387   Lambda : -0.747D-02
Largest |displ|/coords:  0.1643 (  49)  0.1452 (  45)  0.1434 (  29)
................................................................................
.............................. CYCLE    3 ......................................
................................................................................
   1   -152.3343939 -0.152334E+03  0.181E-01    4.92       0.0  T
   2   -152.3345190 -0.125096E-03  0.998E-02    4.90       1.0  T
   3   -152.3345203 -0.133164E-05  0.221E-02    4.88       1.0  T
   4   -152.3345402 -0.198548E-04  0.815E-03    4.88       1.4  T
   5   -152.3345415 -0.131500E-05  0.326E-03    4.88       3.6  T
   6   -152.3345417 -0.234365E-06  0.171E-03    4.88       6.8  T
   7   -152.3345418 -0.454571E-07  0.452E-04    4.88      25.9  T
   8   -152.3345418 -0.576225E-08  0.204E-04    4.88      57.3  T
speedup 10.83
cpu  time for SCC    2.74 s
wall time for SCC    0.25 s
speedup  8.35
cpu  time for grad    1.23 s
wall time for grad    0.15 s
 E :   -150.96607590  G :  0.014190    pred/act E change: -0.118D-01 -0.444D-02
Maxdispl :   0.0702   ||displ|| :   0.1259   Lambda : -0.675D-03
Largest |displ|/coords:  0.0702 (  29)  0.0613 (  45)  0.0472 (  20)
................................................................................
.............................. CYCLE    4 ......................................
................................................................................
   1   -152.3390262 -0.152339E+03  0.557E-02    4.86       0.0  T
   2   -152.3390441 -0.178456E-04  0.303E-02    4.86       1.0  T
   3   -152.3390443 -0.215618E-06  0.772E-03    4.85       1.5  T
   4   -152.3390466 -0.233247E-05  0.293E-03    4.85       4.0  T
   5   -152.3390469 -0.255564E-06  0.101E-03    4.85      11.6  T
   6   -152.3390469 -0.307714E-07  0.510E-04    4.85      23.0  T
   7   -152.3390469 -0.238541E-08  0.167E-04    4.85      70.1  T
speedup  8.82
cpu  time for SCC    3.01 s
wall time for SCC    0.34 s
speedup  9.71
cpu  time for grad    1.32 s
wall time for grad    0.14 s
 E :   -150.96647236  G :  0.003864    pred/act E change: -0.416D-02 -0.396D-03
Maxdispl :   0.0361   ||displ|| :   0.0472   Lambda : -0.740D-04
Largest |displ|/coords:  0.0361 (  20)  0.0182 (  45)  0.0170 (  29)
................................................................................
.............................. CYCLE    5 ......................................
................................................................................
   1   -152.3391182 -0.152339E+03  0.124E-02    4.85       0.0  T
   2   -152.3391195 -0.123416E-05  0.653E-03    4.85       1.8  T
   3   -152.3391195 -0.702926E-07  0.217E-03    4.85       5.4  T
   4   -152.3391196 -0.821786E-07  0.610E-04    4.85      19.2  T
   5   -152.3391196 -0.659520E-08  0.245E-04    4.85      47.8  T
   6   -152.3391196 -0.368826E-08  0.829E-05    4.85     141.2  T
   7   -152.3391196 -0.491696E-10  0.299E-05    4.85     391.3  T
speedup  8.55
cpu  time for SCC    3.56 s
wall time for SCC    0.42 s
speedup  8.56
cpu  time for grad    1.48 s
wall time for grad    0.17 s
 E :   -150.96652086  G :  0.001491    pred/act E change: -0.343D-03 -0.485D-04
Maxdispl :   0.0334   ||displ|| :   0.0368   Lambda : -0.246D-04
Largest |displ|/coords:  0.0334 (  20)  0.0130 (  11)  0.0055 (  45)
................................................................................
.............................. CYCLE    6 ......................................
................................................................................
   1   -152.3389603 -0.152339E+03  0.575E-03    4.85       0.0  T
   2   -152.3389606 -0.274686E-06  0.323E-03    4.84       3.6  T
   3   -152.3389606 -0.901341E-08  0.125E-03    4.84       9.4  T
   4   -152.3389606 -0.202764E-07  0.217E-04    4.84      53.9  T
   5   -152.3389606 -0.985438E-09  0.983E-05    4.84     119.1  T
   6   -152.3389606 -0.396710E-09  0.321E-05    4.84     364.2  T
speedup  9.43
cpu  time for SCC    2.79 s
wall time for SCC    0.30 s
speedup  8.45
cpu  time for grad    1.90 s
wall time for grad    0.22 s
 E :   -150.96653754  G :  0.001066    pred/act E change: -0.371D-04 -0.167D-04
Maxdispl :   0.0288   ||displ|| :   0.0323   Lambda : -0.120D-04
Largest |displ|/coords:  0.0288 (  20)  0.0121 (  11)  0.0070 (  29)
................................................................................
.............................. CYCLE    7 ......................................
................................................................................
   1   -152.3389153 -0.152339E+03  0.511E-03    4.85       0.0  T
   2   -152.3389153 -0.570471E-07  0.304E-03    4.85       3.8  T
   3   -152.3389153  0.233899E-08  0.596E-04    4.85      19.6  T
   4   -152.3389153 -0.102721E-07  0.112E-04    4.85     104.9  T
   5   -152.3389153 -0.119456E-09  0.626E-05    4.85     186.9  T
speedup 10.83
cpu  time for SCC    2.29 s
wall time for SCC    0.21 s
speedup  8.18
cpu  time for grad    1.43 s
wall time for grad    0.17 s
 E :   -150.96654559  G :  0.000849    pred/act E change: -0.123D-04 -0.805D-05
Maxdispl :   0.0286   ||displ|| :   0.0423   Lambda : -0.974D-05
Largest |displ|/coords:  0.0286 (  20)  0.0255 (   3)  0.0124 (  11)
................................................................................
.............................. CYCLE    8 ......................................
................................................................................
   1   -152.3388738 -0.152339E+03  0.137E-02    4.85       0.0  T
   2   -152.3388739 -0.157644E-06  0.804E-03    4.85       1.5  T
   3   -152.3388739  0.198020E-07  0.115E-03    4.85      10.2  T
   4   -152.3388740 -0.638518E-07  0.416E-04    4.85      28.1  T
   5   -152.3388740 -0.241809E-08  0.237E-04    4.85      49.4  T
   6   -152.3388740 -0.626756E-09  0.112E-04    4.85     104.3  T
   7   -152.3388740 -0.772218E-10  0.547E-05    4.85     214.0  T
speedup  8.73
cpu  time for SCC    3.04 s
wall time for SCC    0.35 s
speedup  9.17
cpu  time for grad    1.57 s
wall time for grad    0.17 s
 E :   -150.96653167  G :  0.001736    pred/act E change: -0.599D-05  0.139D-04
Maxdispl :   0.0256   ||displ|| :   0.0269   Lambda : -0.378D-04
Largest |displ|/coords:  0.0256 (   3)  0.0051 (  29)  0.0037 (  20)
................................................................................
.............................. CYCLE    9 ......................................
................................................................................
   1   -152.3389148 -0.152339E+03  0.127E-02    4.85       0.0  T
   2   -152.3389149 -0.145381E-06  0.740E-03    4.85       1.6  T
   3   -152.3389149  0.264907E-07  0.115E-03    4.85      10.2  T
   4   -152.3389150 -0.677562E-07  0.409E-04    4.85      28.6  T
   5   -152.3389150 -0.199600E-08  0.215E-04    4.85      54.5  T
   6   -152.3389150 -0.630649E-09  0.665E-05    4.85     175.9  T
   7   -152.3389150 -0.712816E-10  0.343E-05    4.85     340.8  T
speedup  8.52
cpu  time for SCC    3.26 s
wall time for SCC    0.38 s
speedup  9.37
cpu  time for grad    1.55 s
wall time for grad    0.17 s
 E :   -150.96654905  G :  0.000654    pred/act E change: -0.488D-05 -0.174D-04
Maxdispl :   0.0148   ||displ|| :   0.0172   Lambda : -0.194D-05
Largest |displ|/coords:  0.0148 (  20)  0.0067 (  11)  0.0052 (  29)
................................................................................
.............................. CYCLE   10 ......................................
................................................................................
   1   -152.3389197 -0.152339E+03  0.296E-03    4.85       0.0  T
   2   -152.3389197 -0.114723E-07  0.177E-03    4.85       6.6  T
   3   -152.3389197  0.152528E-08  0.274E-04    4.85      42.8  T
   4   -152.3389197 -0.359984E-08  0.710E-05    4.85     164.8  T
   5   -152.3389197 -0.131820E-09  0.429E-05    4.85     272.6  T
speedup  8.92
cpu  time for SCC    2.50 s
wall time for SCC    0.28 s
speedup  7.98
cpu  time for grad    1.71 s
wall time for grad    0.21 s
 E :   -150.96654977  G :  0.000132    pred/act E change: -0.189D-04 -0.717D-06
Maxdispl :   0.0040   ||displ|| :   0.0047   Lambda : -0.210D-06
Largest |displ|/coords:  0.0040 (  20)  0.0018 (  29)  0.0015 (  11)
ancopt converged in         10 cycles
total energy gain (kcal):    -12.2046
================
 final structure:
================
    73
       -150.96654977
C          -3.17983335665211   -1.61317576128188   -0.00000000346900
C           1.61317678963083   -3.17983214299489    0.00000000181986
C           3.17982934901120    1.61317724518732   -0.00000000332830
C          -1.61317928176402    3.17983628267217   -0.00000000406048
C          -3.56399898456191   -0.10673394472594    0.00000000731422
C           0.10673510612795   -3.56399620031053    0.00000000946263
C           3.56399478799100    0.10673585975621    0.00000000746136
C          -0.10673703991856    3.56399989715815    0.00000000897079
N          -2.98804823747265    0.38444817860265   -1.22321106902754
N          -0.38444635122636   -2.98804502429384   -1.22321095363570
N           2.98804448462414   -0.38444579125873   -1.22321130320885
N           0.38444340521701    2.98805034898641    1.22321326433818
N          -2.98804825247989    0.38444817287459    1.22321107715693
N          -0.38444635650206   -2.98804503745415    1.22321095243271
N           2.98804449262624   -0.38444580086239    1.22321130599340
N           0.38444340944930    2.98805033753045   -1.22321325645756
N          -2.43901694561214   -1.76855620712279   -1.22322401496857
N           1.76855770934432   -2.43901655925316   -1.22322466170084
N           2.43901326006825    1.76855766633604   -1.22322464506236
N          -1.76856065285775    2.43902234646936    1.22322691902094
N          -2.43901694212282   -1.76855622085113    1.22322404213107
N           1.76855770193002   -2.43901656972391    1.22322468457529
N           2.43901325461799    1.76855765984971    1.22322467497713
N          -1.76856065029388    2.43902235134749   -1.22322689047469
C          -2.47356863281753   -0.63085545356769   -2.00594356542447
C           0.63085635112764   -2.47356504615698   -2.00594378366192
C           2.47356471049032    0.63085633173654   -2.00594468929639
C          -0.63086084082491    2.47357786611467    2.00595048877305
C          -2.47356864497725   -0.63085544198566    2.00594358935041
C           0.63085637221185   -2.47356505479634    2.00594380605853
C           2.47356472681495    0.63085634828515    2.00594470468003
C          -0.63086083448281    2.47357784436647   -2.00595048001394
O          -2.15353809614155   -0.54924162175062   -3.15498987350017
O           0.54924311430221   -2.15353636233758   -3.15499050303112
O           2.15353563019033    0.54924298351528   -3.15499131546487
O          -0.54924745157058    2.15354780419919    3.15499692952868
O          -2.15353809410553   -0.54924161673929    3.15498988245598
O           0.54924310038782   -2.15353638133064    3.15499052285170
O           2.15353565603600    0.54924296490513    3.15499134088289
O          -0.54924745651797    2.15354780020653   -3.15499692924770
C          -2.95701542315634    1.75522359769698   -1.66084515940917
C          -1.75522138837390   -2.95701199033849   -1.66084422307222
C           2.95701304650224   -1.75522118558018   -1.66084461421945
C           1.75521950081826    2.95701396171427    1.66084519203983
C          -2.95701541893210    1.75522360901956    1.66084516690476
C          -1.75522139169567   -2.95701198296147    1.66084422757091
C           2.95701305390920   -1.75522117836381    1.66084462231445
C           1.75521949895008    2.95701396411059   -1.66084518101257
H          -3.85332395029703    2.28722735910418   -1.32080253628639
H          -2.28722609204053   -3.85331965030675   -1.32080217203648
H           3.85332091267487   -2.28722490739259   -1.32080230921868
H           2.28722531357977    3.85332094204218    1.32080219355657
H          -3.85332394968599    2.28722735903836    1.32080253863329
H          -2.28722609709169   -3.85331964940192    1.32080218310350
H           3.85332091111273   -2.28722491455632    1.32080231715793
H           2.28722531269158    3.85332094850464   -1.32080219273065
H          -2.90067296024316    1.72177775777558   -2.75771757420220
H          -1.72177621493232   -2.90066921618664   -2.75771630648844
H           2.90067059316548   -1.72177622043669   -2.75771652635735
H           1.72177523658142    2.90067142002890    2.75771746506687
H          -2.90067296773499    1.72177775472784    2.75771758515362
H          -1.72177620201734   -2.90066921891363    2.75771631562572
H           2.90067060158270   -1.72177621817679    2.75771653391133
H           1.72177524009508    2.90067140434162   -2.75771745274768
H          -4.65869757076905    0.06117208562460   -0.00000000432135
H          -0.06117128869761   -4.65869430469308   -0.00000000501535
H           4.65869297319049   -0.06117008510470    0.00000000034731
H           0.06117050526619    4.65869829361179   -0.00000000295702
H          -4.06044103345571   -2.28480673418376    0.00000000774587
H           2.28480605381440   -4.06044066756602    0.00000000274654
H           4.06043762289886    2.28480749604073    0.00000001992835
H          -2.28480919324908    4.06044511560224    0.00000000498441
XE          0.00010445624209   -0.00012899612262   -0.00000039191762
 
 Bond Distances (Angstroems)
 ---------------------------
C1-C5=1.5547         C1-N17=1.4385        C1-N21=1.4385        C1-H69=1.1075        C2-C6=1.5547         C2-N18=1.4385        
C2-N22=1.4385        C2-H70=1.1075        C3-C7=1.5547         C3-N19=1.4385        C3-N23=1.4385        C3-H71=1.1075        
C4-C8=1.5547         C4-N20=1.4385        C4-N24=1.4385        C4-H72=1.1075        C5-C1=1.5547         C5-N9=1.4385         
C5-N13=1.4385        C5-H65=1.1075        C6-C2=1.5547         C6-N10=1.4385        C6-N14=1.4385        C6-H66=1.1075        
C7-C3=1.5547         C7-N11=1.4385        C7-N15=1.4385        C7-H67=1.1075        C8-C4=1.5547         C8-N12=1.4385        
C8-N16=1.4385        C8-H68=1.1075        N9-C5=1.4385         N9-C25=1.3814        N9-C41=1.4393        N10-C6=1.4385        
N10-C26=1.3814       N10-C42=1.4393       N11-C7=1.4385        N11-C27=1.3814       N11-C43=1.4393       N12-C8=1.4385        
N12-C28=1.3814       N12-C44=1.4393       N13-C5=1.4385        N13-C29=1.3814       N13-C45=1.4393       N14-C6=1.4385        
N14-C30=1.3814       N14-C46=1.4393       N15-C7=1.4385        N15-C31=1.3814       N15-C47=1.4393       N16-C8=1.4385        
N16-C32=1.3814       N16-C48=1.4393       N17-C1=1.4385        N17-C25=1.3814       N17-C42=1.4393       N18-C2=1.4385        
N18-C26=1.3814       N18-C43=1.4393       N19-C3=1.4385        N19-C27=1.3814       N19-C48=1.4393       N20-C4=1.4385        
N20-C28=1.3814       N20-C45=1.4393       N21-C1=1.4385        N21-C29=1.3814       N21-C46=1.4393       N22-C2=1.4385        
N22-C30=1.3814       N22-C47=1.4393       N23-C3=1.4385        N23-C31=1.3814       N23-C44=1.4393       N24-C4=1.4385        
N24-C32=1.3814       N24-C41=1.4393       C25-N9=1.3814        C25-N17=1.3814       C25-O33=1.1956       C26-N10=1.3814       
C26-N18=1.3814       C26-O34=1.1956       C27-N11=1.3814       C27-N19=1.3814       C27-O35=1.1956       C28-N12=1.3814       
C28-N20=1.3814       C28-O36=1.1956       C29-N13=1.3814       C29-N21=1.3814       C29-O37=1.1956       C30-N14=1.3814       
C30-N22=1.3814       C30-O38=1.1956       C31-N15=1.3814       C31-N23=1.3814       C31-O39=1.1956       C32-N16=1.3814       
C32-N24=1.3814       C32-O40=1.1956       O33-C25=1.1956       O34-C26=1.1956       O35-C27=1.1956       O36-C28=1.1956       
O37-C29=1.1956       O38-C30=1.1956       O39-C31=1.1956       O40-C32=1.1956       C41-N9=1.4393        C41-N24=1.4393       
C41-H49=1.0964       C41-H57=1.0988       C42-N10=1.4393       C42-N17=1.4393       C42-H50=1.0964       C42-H58=1.0988       
C43-N11=1.4393       C43-N18=1.4393       C43-H51=1.0964       C43-H59=1.0988       C44-N12=1.4393       C44-N23=1.4393       
C44-H52=1.0964       C44-H60=1.0988       C45-N13=1.4393       C45-N20=1.4393       C45-H53=1.0964       C45-H61=1.0988       
C46-N14=1.4393       C46-N21=1.4393       C46-H54=1.0964       C46-H62=1.0988       C47-N15=1.4393       C47-N22=1.4393       
C47-H55=1.0964       C47-H63=1.0988       C48-N16=1.4393       C48-N19=1.4393       C48-H56=1.0964       C48-H64=1.0988       
H49-C41=1.0964       H50-C42=1.0964       H51-C43=1.0964       H52-C44=1.0964       H53-C45=1.0964       H54-C46=1.0964       
H55-C47=1.0964       H56-C48=1.0964       H57-C41=1.0988       H58-C42=1.0988       H59-C43=1.0988       H60-C44=1.0988       
H61-C45=1.0988       H62-C46=1.0988       H63-C47=1.0988       H64-C48=1.0988       H65-C5=1.1075        H66-C6=1.1075        
H67-C7=1.1075        H68-C8=1.1075        H69-C1=1.1075        H70-C2=1.1075        H71-C3=1.1075        H72-C4=1.1075        
 C  H  Rav=1.1009 sigma=0.0048  Rmin=1.0964  Rmax=1.1075    24
 C  C  Rav=1.5547 sigma=0.0000  Rmin=1.5547  Rmax=1.5547     4
 N  C  Rav=1.4197 sigma=0.0271  Rmin=1.3814  Rmax=1.4393    48
 O  C  Rav=1.1956 sigma=0.0000  Rmin=1.1956  Rmax=1.1956     8
 
 selected bond angles (degree)
 --------------------
N17-C1-C5=103.41               N21-C1-C5=103.41               N21-C1-N17=116.50              H69-C1-C5=113.03               
H69-C1-N17=110.12              H69-C1-N21=110.12              N18-C2-C6=103.41               N22-C2-C6=103.41               
N22-C2-N18=116.50              H70-C2-C6=113.03               H70-C2-N18=110.12              H70-C2-N22=110.12              
N19-C3-C7=103.41               N23-C3-C7=103.41               N23-C3-N19=116.50              H71-C3-C7=113.03               
H71-C3-N19=110.12              H71-C3-N23=110.12              N20-C4-C8=103.41               N24-C4-C8=103.41               
N24-C4-N20=116.50              H72-C4-C8=113.03               H72-C4-N20=110.12              H72-C4-N24=110.12              
N9-C5-C1=103.41                N13-C5-C1=103.41               N13-C5-N9=116.50               H65-C5-C1=113.03               
H65-C5-N9=110.12               H65-C5-N13=110.12              N10-C6-C2=103.41               N14-C6-C2=103.41               
N14-C6-N10=116.50              H66-C6-C2=113.03               H66-C6-N10=110.12              H66-C6-N14=110.12              
N11-C7-C3=103.41               N15-C7-C3=103.41               N15-C7-N11=116.50              H67-C7-C3=113.03               
H67-C7-N11=110.12              H67-C7-N15=110.12              N12-C8-C4=103.41               N16-C8-C4=103.41               
N16-C8-N12=116.50              H68-C8-C4=113.03               H68-C8-N12=110.12              H68-C8-N16=110.12              
C25-N9-C5=112.33               C41-N9-C5=126.33               C41-N9-C25=121.31              C26-N10-C6=112.33              
C42-N10-C6=126.33              C42-N10-C26=121.31             
 
 selected dihedral angles (degree)
 ---------------------------------
N9-C5-C1-N17=  0.00           N9-C5-C1-N21=121.90           N9-C5-C1-H69=240.95           N13-C5-C1-N17=238.10          
N13-C5-C1-N21=  0.00          N13-C5-C1-H69=119.05          H65-C5-C1-N17=119.05          H65-C5-C1-N21=240.95          
H65-C5-C1-H69=  0.00          N10-C6-C2-N18=  0.00          N10-C6-C2-N22=121.90          N10-C6-C2-H70=240.95          
N14-C6-C2-N18=238.10          N14-C6-C2-N22=  0.00          N14-C6-C2-H70=119.05          H66-C6-C2-N18=119.05          
H66-C6-C2-N22=240.95          H66-C6-C2-H70=  0.00          N11-C7-C3-N19=  0.00          N11-C7-C3-N23=121.90          
N11-C7-C3-H71=240.95          N15-C7-C3-N19=238.10          N15-C7-C3-N23=  0.00          N15-C7-C3-H71=119.05          
H67-C7-C3-N19=119.05          H67-C7-C3-N23=240.95          H67-C7-C3-H71=  0.00          N12-C8-C4-N20=  0.00          
N12-C8-C4-N24=238.10          N12-C8-C4-H72=119.05          N16-C8-C4-N20=121.90          N16-C8-C4-N24=  0.00          
N16-C8-C4-H72=240.95          H68-C8-C4-N20=240.95          H68-C8-C4-N24=119.05          H68-C8-C4-H72=  0.00          
C25-N9-C5-C1=  7.36           C25-N9-C5-N13=120.02          C25-N9-C5-H65=246.32          C41-N9-C5-C1=185.44           
C41-N9-C5-N13=298.10          C41-N9-C5-H65= 64.40          C26-N10-C6-C2=  7.36          C26-N10-C6-N14=120.02         
C26-N10-C6-H66=246.32         C42-N10-C6-C2=185.44          C42-N10-C6-N14=298.10         C42-N10-C6-H66= 64.40         
 
 CMA Distance (Angstroems)
 ---------------------------
R(CMA):  0.0002
 
             =======================================
             |                                     |
             |        S C C  calculation           |
             |                                     |
             =======================================
 #proc     :                      1
 Ncao      :                    226
 Nao       :                    225
 Nel       :                    256
 T(el)     :   300.0
 intcut    :    25.0
 scfconv   :  0.100E-05
   qconv   :  0.200E-04
 intneglect:  0.100E-07
 broydamp  :      0.400
 Nshell    :                    123
 iter      E             dE          RMSdq      gap      omega  full diag
   1   -152.3389197 -0.152339E+03  0.137E-05    4.85       0.0  T
   2   -152.3389197 -0.909495E-12  0.908E-06    4.85    1288.4  T
   3   -152.3389197  0.483169E-12  0.342E-06    4.85    3423.8  T
speedup 10.98
cpu  time for SCC    1.89 s
wall time for SCC    0.17 s

          eigenvalues
 #    :         116        117        118        119        120        121        122        123
 occ. :        2.000      2.000      2.000      2.000      2.000      2.000      2.000      2.000
 eps  :       -10.366    -10.358    -10.240    -10.200    -10.182    -10.182    -10.175    -10.175
 #    :         124        125        126        127        128        129        130        131
 occ. :        2.000      2.000      2.000      2.000      2.000      0.000      0.000      0.000
 eps  :       -10.086    -10.016     -9.885     -9.666     -9.666     -4.819     -4.637     -4.596
 #    :         132        133        134        135        136        137        138        139
 occ. :        0.000      0.000      0.000      0.000      0.000      0.000      0.000      0.000
 eps  :        -4.596     -4.492     -4.492     -4.437     -4.279     -0.183     -0.158     -0.023
 
 
 Mulliken/CM5 charges        n(s)   n(p)   n(d)
     1 C   0.06834  0.14855   1.078  2.853  0.000
     2 C   0.06834  0.14855   1.078  2.853  0.000
     3 C   0.06834  0.14856   1.078  2.853  0.000
     4 C   0.06834  0.14856   1.078  2.853  0.000
     5 C   0.06834  0.14856   1.078  2.853  0.000
     6 C   0.06834  0.14856   1.078  2.853  0.000
     7 C   0.06834  0.14856   1.078  2.853  0.000
     8 C   0.06834  0.14856   1.078  2.853  0.000
     9 N  -0.03417 -0.27662   1.126  3.908  0.000
    10 N  -0.03417 -0.27662   1.126  3.908  0.000
    11 N  -0.03417 -0.27662   1.126  3.908  0.000
    12 N  -0.03417 -0.27662   1.126  3.908  0.000
    13 N  -0.03417 -0.27662   1.126  3.908  0.000
    14 N  -0.03417 -0.27662   1.126  3.908  0.000
    15 N  -0.03417 -0.27662   1.126  3.908  0.000
    16 N  -0.03417 -0.27662   1.126  3.908  0.000
    17 N  -0.03417 -0.27662   1.126  3.908  0.000
    18 N  -0.03417 -0.27662   1.126  3.908  0.000
    19 N  -0.03417 -0.27662   1.126  3.908  0.000
    20 N  -0.03417 -0.27661   1.126  3.908  0.000
    21 N  -0.03417 -0.27662   1.126  3.908  0.000
    22 N  -0.03417 -0.27662   1.126  3.908  0.000
    23 N  -0.03417 -0.27662   1.126  3.908  0.000
    24 N  -0.03417 -0.27661   1.126  3.908  0.000
    25 C   0.23612  0.40713   1.053  2.711  0.000
    26 C   0.23612  0.40713   1.053  2.711  0.000
    27 C   0.23612  0.40713   1.053  2.711  0.000
    28 C   0.23612  0.40713   1.053  2.711  0.000
    29 C   0.23612  0.40713   1.053  2.711  0.000
    30 C   0.23612  0.40713   1.053  2.711  0.000
    31 C   0.23612  0.40713   1.053  2.711  0.000
    32 C   0.23612  0.40713   1.053  2.711  0.000
    33 O  -0.39865 -0.44119   1.725  4.674  0.000
    34 O  -0.39865 -0.44118   1.725  4.674  0.000
    35 O  -0.39865 -0.44118   1.725  4.674  0.000
    36 O  -0.39865 -0.44119   1.725  4.674  0.000
    37 O  -0.39865 -0.44119   1.725  4.674  0.000
    38 O  -0.39865 -0.44118   1.725  4.674  0.000
    39 O  -0.39865 -0.44118   1.725  4.674  0.000
    40 O  -0.39865 -0.44119   1.725  4.674  0.000
    41 C   0.03262  0.05783   1.072  2.896  0.000
    42 C   0.03262  0.05783   1.072  2.896  0.000
    43 C   0.03262  0.05783   1.072  2.896  0.000
    44 C   0.03262  0.05783   1.072  2.896  0.000
    45 C   0.03262  0.05783   1.072  2.896  0.000
    46 C   0.03262  0.05783   1.072  2.896  0.000
    47 C   0.03262  0.05783   1.072  2.896  0.000
    48 C   0.03262  0.05783   1.072  2.896  0.000
    49 H   0.03614  0.11248   0.964  0.000  0.000
    50 H   0.03614  0.11248   0.964  0.000  0.000
    51 H   0.03614  0.11248   0.964  0.000  0.000
    52 H   0.03614  0.11248   0.964  0.000  0.000
    53 H   0.03614  0.11248   0.964  0.000  0.000
    54 H   0.03614  0.11248   0.964  0.000  0.000
    55 H   0.03614  0.11248   0.964  0.000  0.000
    56 H   0.03614  0.11248   0.964  0.000  0.000
    57 H   0.07466  0.16307   0.925  0.000  0.000
    58 H   0.07466  0.16307   0.925  0.000  0.000
    59 H   0.07466  0.16307   0.925  0.000  0.000
    60 H   0.07466  0.16307   0.925  0.000  0.000
    61 H   0.07466  0.16307   0.925  0.000  0.000
    62 H   0.07466  0.16307   0.925  0.000  0.000
    63 H   0.07466  0.16307   0.925  0.000  0.000
    64 H   0.07466  0.16307   0.925  0.000  0.000
    65 H   0.02611  0.10394   0.974  0.000  0.000
    66 H   0.02611  0.10394   0.974  0.000  0.000
    67 H   0.02611  0.10394   0.974  0.000  0.000
    68 H   0.02611  0.10394   0.974  0.000  0.000
    69 H   0.02611  0.10394   0.974  0.000  0.000
    70 H   0.02611  0.10394   0.974  0.000  0.000
    71 H   0.02611  0.10394   0.974  0.000  0.000
    72 H   0.02611  0.10394   0.974  0.000  0.000
    73 XE -0.05592  0.01131   2.000  5.972  0.084
 
 Wiberg/Mayer (AO) data. WBOs > 0.1 written file <wbo>
 largest (>0.05) Wiberg bond orders for each atom
           total WBO             WBO to atom ...
     1  C   3.978    N   17 0.995    N   21 0.995    C    5 0.957    H   69 0.948
     2  C   3.978    N   18 0.995    N   22 0.995    C    6 0.957    H   70 0.948
     3  C   3.978    N   19 0.995    N   23 0.995    C    7 0.957    H   71 0.948
     4  C   3.978    N   24 0.995    N   20 0.995    C    8 0.957    H   72 0.948
     5  C   3.978    N   13 0.995    N    9 0.995    C    1 0.957    H   65 0.948
     6  C   3.978    N   14 0.995    N   10 0.995    C    2 0.957    H   66 0.948
     7  C   3.978    N   15 0.995    N   11 0.995    C    3 0.957    H   67 0.948
     8  C   3.978    N   12 0.995    N   16 0.995    C    4 0.957    H   68 0.948
     9  N   3.420    C   25 1.096    C   41 0.997    C    5 0.995    O   33 0.148
    10  N   3.420    C   26 1.096    C   42 0.997    C    6 0.995    O   34 0.148
    11  N   3.420    C   27 1.096    C   43 0.997    C    7 0.995    O   35 0.148
    12  N   3.420    C   28 1.096    C   44 0.997    C    8 0.995    O   36 0.148
    13  N   3.420    C   29 1.096    C   45 0.997    C    5 0.995    O   37 0.148
    14  N   3.420    C   30 1.096    C   46 0.997    C    6 0.995    O   38 0.148
    15  N   3.420    C   31 1.096    C   47 0.997    C    7 0.995    O   39 0.148
    16  N   3.420    C   32 1.096    C   48 0.997    C    8 0.995    O   40 0.148
    17  N   3.420    C   25 1.096    C   42 0.997    C    1 0.995    O   33 0.148
    18  N   3.420    C   26 1.096    C   43 0.997    C    2 0.995    O   34 0.148
    19  N   3.420    C   27 1.096    C   48 0.997    C    3 0.995    O   35 0.148
    20  N   3.420    C   28 1.096    C   45 0.997    C    4 0.995    O   36 0.148
    21  N   3.420    C   29 1.096    C   46 0.997    C    1 0.995    O   37 0.148
    22  N   3.420    C   30 1.096    C   47 0.997    C    2 0.995    O   38 0.148
    23  N   3.420    C   31 1.096    C   44 0.997    C    3 0.995    O   39 0.148
    24  N   3.420    C   32 1.096    C   41 0.997    C    4 0.995    O   40 0.148
    25  C   3.965    O   33 1.704    N    9 1.096    N   17 1.096
    26  C   3.965    O   34 1.704    N   10 1.096    N   18 1.096
    27  C   3.965    O   35 1.704    N   11 1.096    N   19 1.096
    28  C   3.965    O   36 1.704    N   12 1.096    N   20 1.096
    29  C   3.965    O   37 1.704    N   13 1.096    N   21 1.096
    30  C   3.965    O   38 1.704    N   14 1.096    N   22 1.096
    31  C   3.965    O   39 1.704    N   15 1.096    N   23 1.096
    32  C   3.965    O   40 1.704    N   16 1.096    N   24 1.096
    33  O   2.062    C   25 1.704    N    9 0.148    N   17 0.148
    34  O   2.062    C   26 1.704    N   10 0.148    N   18 0.148
    35  O   2.062    C   27 1.704    N   19 0.148    N   11 0.148
    36  O   2.062    C   28 1.704    N   12 0.148    N   20 0.148
    37  O   2.062    C   29 1.704    N   13 0.148    N   21 0.148
    38  O   2.062    C   30 1.704    N   14 0.148    N   22 0.148
    39  O   2.062    C   31 1.704    N   23 0.148    N   15 0.148
    40  O   2.062    C   32 1.704    N   16 0.148    N   24 0.148
    41  C   3.969    N   24 0.997    N    9 0.997    H   49 0.964    H   57 0.957
    42  C   3.969    N   17 0.997    N   10 0.997    H   50 0.964    H   58 0.957
    43  C   3.969    N   11 0.997    N   18 0.997    H   51 0.964    H   59 0.957
    44  C   3.969    N   12 0.997    N   23 0.997    H   52 0.964    H   60 0.957
    45  C   3.969    N   20 0.997    N   13 0.997    H   53 0.964    H   61 0.957
    46  C   3.969    N   21 0.997    N   14 0.997    H   54 0.964    H   62 0.957
    47  C   3.969    N   15 0.997    N   22 0.997    H   55 0.964    H   63 0.957
    48  C   3.969    N   16 0.997    N   19 0.997    H   56 0.964    H   64 0.957
    49  H   0.998    C   41 0.964
    50  H   0.998    C   42 0.964
    51  H   0.998    C   43 0.964
    52  H   0.998    C   44 0.964
    53  H   0.998    C   45 0.964
    54  H   0.998    C   46 0.964
    55  H   0.998    C   47 0.964
    56  H   0.998    C   48 0.964
    57  H   0.994    C   41 0.957
    58  H   0.994    C   42 0.957
    59  H   0.994    C   43 0.957
    60  H   0.994    C   44 0.957
    61  H   0.994    C   45 0.957
    62  H   0.994    C   46 0.957
    63  H   0.994    C   47 0.957
    64  H   0.994    C   48 0.957
    65  H   0.999    C    5 0.948
    66  H   0.999    C    6 0.948
    67  H   0.999    C    7 0.948
    68  H   0.999    C    8 0.948
    69  H   0.999    C    1 0.948
    70  H   0.999    C    2 0.948
    71  H   0.999    C    3 0.948
    72  H   0.999    C    4 0.948
    73  XE  0.222
 density
 
 cube file module (SG, 7/16)
 cube_pthr     :   0.005
 cube_step     :   0.400
 non-zero P (%):  33.106   nmat:    8492
 Grid Boundaries (x y z) :
   11.8036530012467        11.8036630553849        8.96207956768339     
  -11.8036616894102       -11.8036555174217       -8.96207956715240     
 Total # of points                162000
 writing density.cub
 N    (numint) : ******
cpu  time for cube   45.11 s
wall time for cube   43.61 s
 
molecular dipole:
                 x           y           z       tot (Debye)
 q only:       -0.000       0.000       0.000
   full:        0.000      -0.000      -0.000       0.000
molecular quadrupole (traceless):
                xx          xy          yy          xz          yz          zz
 q only:       51.029      -0.000      51.029      -0.000       0.000    -102.059
  q+dip:       62.866       0.000      62.866      -0.000       0.000    -125.732
   full:       63.759       0.000      63.759      -0.000       0.000    -127.517
 SCC converged in                      3  cycles
 
SCC energy    :    -152.3389197
rep           :       1.4910531
ES            :      -0.0056747
AES           :       0.0124478
disp          :      -0.1186832
XB            :       0.0000000
fix           :       0.0000000
total E       :    -150.9665498
atomizationE  :      19.6754587    12346.54
(atE without considerung molecular charge,
 total energy contains solvation terms)
H-L gap (eV)  :          4.8469
 !!!!!!!!!!!!!!!!!!!!!!!!!!!!!!!!!!!
 ! Note: the input coordinates are !
 ! NOT overwritten. The optimized  !
 ! ones are on file <xtbopt.coord> !
 ! (or on <xtbopt.xyz> if it was a !
 ! xyz file)                       !
 !!!!!!!!!!!!!!!!!!!!!!!!!!!!!!!!!!!
 
speedup  1.52
cpu  time for all    2 m 20.9 s
wall time for all    1 m 32.6 s
